ITEM: TIMESTEP
0
ITEM: NUMBER OF ATOMS
1000
ITEM: BOX BOUNDS ff pp pp
0.0000000000000000e+00 1.0000000000000000e+00
0.0000000000000000e+00 1.0000000000000001e-01
0.0000000000000000e+00 1.0000000000000000e-03
ITEM: ATOMS id type x y z 
1 1 0 0 0 
2 1 0.01 0 0 
26 1 0 0.01 0 
27 1 0.01 0.01 0 
3 1 0.02 0 0 
28 1 0.02 0.01 0 
4 1 0.03 0 0 
29 1 0.03 0.01 0 
5 1 0.04 0 0 
30 1 0.04 0.01 0 
6 1 0.05 0 0 
31 1 0.05 0.01 0 
7 1 0.06 0 0 
32 1 0.06 0.01 0 
8 1 0.07 0 0 
33 1 0.07 0.01 0 
9 1 0.08 0 0 
10 1 0.09 0 0 
34 1 0.08 0.01 0 
35 1 0.09 0.01 0 
11 1 0.1 0 0 
36 1 0.1 0.01 0 
12 1 0.11 0 0 
37 1 0.11 0.01 0 
13 1 0.12 0 0 
38 1 0.12 0.01 0 
14 1 0.13 0 0 
39 1 0.13 0.01 0 
15 1 0.14 0 0 
40 1 0.14 0.01 0 
16 1 0.15 0 0 
41 1 0.15 0.01 0 
17 1 0.16 0 0 
18 1 0.17 0 0 
42 1 0.16 0.01 0 
43 1 0.17 0.01 0 
19 1 0.18 0 0 
44 1 0.18 0.01 0 
20 1 0.19 0 0 
45 1 0.19 0.01 0 
21 1 0.2 0 0 
46 1 0.2 0.01 0 
22 1 0.21 0 0 
47 1 0.21 0.01 0 
23 1 0.22 0 0 
48 1 0.22 0.01 0 
24 1 0.23 0 0 
49 1 0.23 0.01 0 
25 1 0.24 0 0 
50 1 0.24 0.01 0 
51 1 0 0.02 0 
52 1 0.01 0.02 0 
53 1 0.02 0.02 0 
54 1 0.03 0.02 0 
55 1 0.04 0.02 0 
56 1 0.05 0.02 0 
57 1 0.06 0.02 0 
58 1 0.07 0.02 0 
59 1 0.08 0.02 0 
60 1 0.09 0.02 0 
61 1 0.1 0.02 0 
62 1 0.11 0.02 0 
63 1 0.12 0.02 0 
64 1 0.13 0.02 0 
65 1 0.14 0.02 0 
66 1 0.15 0.02 0 
67 1 0.16 0.02 0 
68 1 0.17 0.02 0 
69 1 0.18 0.02 0 
70 1 0.19 0.02 0 
71 1 0.2 0.02 0 
72 1 0.21 0.02 0 
73 1 0.22 0.02 0 
74 1 0.23 0.02 0 
75 1 0.24 0.02 0 
76 1 0 0.03 0 
77 1 0.01 0.03 0 
78 1 0.02 0.03 0 
79 1 0.03 0.03 0 
80 1 0.04 0.03 0 
81 1 0.05 0.03 0 
82 1 0.06 0.03 0 
83 1 0.07 0.03 0 
84 1 0.08 0.03 0 
85 1 0.09 0.03 0 
86 1 0.1 0.03 0 
87 1 0.11 0.03 0 
88 1 0.12 0.03 0 
89 1 0.13 0.03 0 
90 1 0.14 0.03 0 
91 1 0.15 0.03 0 
92 1 0.16 0.03 0 
93 1 0.17 0.03 0 
94 1 0.18 0.03 0 
95 1 0.19 0.03 0 
96 1 0.2 0.03 0 
97 1 0.21 0.03 0 
98 1 0.22 0.03 0 
99 1 0.23 0.03 0 
100 1 0.24 0.03 0 
101 1 0 0.04 0 
102 1 0.01 0.04 0 
103 1 0.02 0.04 0 
104 1 0.03 0.04 0 
105 1 0.04 0.04 0 
106 1 0.05 0.04 0 
107 1 0.06 0.04 0 
108 1 0.07 0.04 0 
109 1 0.08 0.04 0 
110 1 0.09 0.04 0 
111 1 0.1 0.04 0 
112 1 0.11 0.04 0 
113 1 0.12 0.04 0 
114 1 0.13 0.04 0 
115 1 0.14 0.04 0 
116 1 0.15 0.04 0 
117 1 0.16 0.04 0 
118 1 0.17 0.04 0 
119 1 0.18 0.04 0 
120 1 0.19 0.04 0 
121 1 0.2 0.04 0 
122 1 0.21 0.04 0 
123 1 0.22 0.04 0 
124 1 0.23 0.04 0 
125 1 0.24 0.04 0 
126 1 0 0.05 0 
127 1 0.01 0.05 0 
128 1 0.02 0.05 0 
129 1 0.03 0.05 0 
130 1 0.04 0.05 0 
131 1 0.05 0.05 0 
132 1 0.06 0.05 0 
133 1 0.07 0.05 0 
134 1 0.08 0.05 0 
135 1 0.09 0.05 0 
136 1 0.1 0.05 0 
137 1 0.11 0.05 0 
138 1 0.12 0.05 0 
139 1 0.13 0.05 0 
140 1 0.14 0.05 0 
141 1 0.15 0.05 0 
142 1 0.16 0.05 0 
143 1 0.17 0.05 0 
144 1 0.18 0.05 0 
145 1 0.19 0.05 0 
146 1 0.2 0.05 0 
147 1 0.21 0.05 0 
148 1 0.22 0.05 0 
149 1 0.23 0.05 0 
150 1 0.24 0.05 0 
151 1 0 0.06 0 
152 1 0.01 0.06 0 
153 1 0.02 0.06 0 
154 1 0.03 0.06 0 
155 1 0.04 0.06 0 
156 1 0.05 0.06 0 
157 1 0.06 0.06 0 
158 1 0.07 0.06 0 
159 1 0.08 0.06 0 
160 1 0.09 0.06 0 
161 1 0.1 0.06 0 
162 1 0.11 0.06 0 
163 1 0.12 0.06 0 
164 1 0.13 0.06 0 
165 1 0.14 0.06 0 
166 1 0.15 0.06 0 
167 1 0.16 0.06 0 
168 1 0.17 0.06 0 
169 1 0.18 0.06 0 
170 1 0.19 0.06 0 
171 1 0.2 0.06 0 
172 1 0.21 0.06 0 
173 1 0.22 0.06 0 
174 1 0.23 0.06 0 
175 1 0.24 0.06 0 
176 1 0 0.07 0 
177 1 0.01 0.07 0 
178 1 0.02 0.07 0 
179 1 0.03 0.07 0 
180 1 0.04 0.07 0 
181 1 0.05 0.07 0 
182 1 0.06 0.07 0 
183 1 0.07 0.07 0 
184 1 0.08 0.07 0 
185 1 0.09 0.07 0 
186 1 0.1 0.07 0 
187 1 0.11 0.07 0 
188 1 0.12 0.07 0 
189 1 0.13 0.07 0 
190 1 0.14 0.07 0 
191 1 0.15 0.07 0 
192 1 0.16 0.07 0 
193 1 0.17 0.07 0 
194 1 0.18 0.07 0 
195 1 0.19 0.07 0 
196 1 0.2 0.07 0 
197 1 0.21 0.07 0 
198 1 0.22 0.07 0 
199 1 0.23 0.07 0 
200 1 0.24 0.07 0 
201 1 0 0.08 0 
202 1 0.01 0.08 0 
203 1 0.02 0.08 0 
204 1 0.03 0.08 0 
205 1 0.04 0.08 0 
206 1 0.05 0.08 0 
207 1 0.06 0.08 0 
208 1 0.07 0.08 0 
209 1 0.08 0.08 0 
210 1 0.09 0.08 0 
211 1 0.1 0.08 0 
212 1 0.11 0.08 0 
213 1 0.12 0.08 0 
214 1 0.13 0.08 0 
215 1 0.14 0.08 0 
216 1 0.15 0.08 0 
217 1 0.16 0.08 0 
218 1 0.17 0.08 0 
219 1 0.18 0.08 0 
220 1 0.19 0.08 0 
221 1 0.2 0.08 0 
222 1 0.21 0.08 0 
223 1 0.22 0.08 0 
224 1 0.23 0.08 0 
225 1 0.24 0.08 0 
226 1 0 0.09 0 
227 1 0.01 0.09 0 
228 1 0.02 0.09 0 
229 1 0.03 0.09 0 
230 1 0.04 0.09 0 
231 1 0.05 0.09 0 
232 1 0.06 0.09 0 
233 1 0.07 0.09 0 
234 1 0.08 0.09 0 
235 1 0.09 0.09 0 
236 1 0.1 0.09 0 
237 1 0.11 0.09 0 
238 1 0.12 0.09 0 
239 1 0.13 0.09 0 
240 1 0.14 0.09 0 
241 1 0.15 0.09 0 
242 1 0.16 0.09 0 
243 1 0.17 0.09 0 
244 1 0.18 0.09 0 
245 1 0.19 0.09 0 
246 1 0.2 0.09 0 
247 1 0.21 0.09 0 
248 1 0.22 0.09 0 
249 1 0.23 0.09 0 
250 1 0.24 0.09 0 
251 1 0.25 0 0 
252 1 0.26 0 0 
276 1 0.25 0.01 0 
277 1 0.26 0.01 0 
253 1 0.27 0 0 
278 1 0.27 0.01 0 
254 1 0.28 0 0 
279 1 0.28 0.01 0 
255 1 0.29 0 0 
280 1 0.29 0.01 0 
256 1 0.3 0 0 
281 1 0.3 0.01 0 
257 1 0.31 0 0 
282 1 0.31 0.01 0 
258 1 0.32 0 0 
283 1 0.32 0.01 0 
259 1 0.33 0 0 
260 1 0.34 0 0 
284 1 0.33 0.01 0 
285 1 0.34 0.01 0 
261 1 0.35 0 0 
286 1 0.35 0.01 0 
262 1 0.36 0 0 
287 1 0.36 0.01 0 
263 1 0.37 0 0 
288 1 0.37 0.01 0 
264 1 0.38 0 0 
289 1 0.38 0.01 0 
265 1 0.39 0 0 
290 1 0.39 0.01 0 
266 1 0.4 0 0 
291 1 0.4 0.01 0 
267 1 0.41 0 0 
268 1 0.42 0 0 
292 1 0.41 0.01 0 
293 1 0.42 0.01 0 
269 1 0.43 0 0 
294 1 0.43 0.01 0 
270 1 0.44 0 0 
295 1 0.44 0.01 0 
271 1 0.45 0 0 
296 1 0.45 0.01 0 
272 1 0.46 0 0 
297 1 0.46 0.01 0 
273 1 0.47 0 0 
298 1 0.47 0.01 0 
274 1 0.48 0 0 
299 1 0.48 0.01 0 
275 1 0.49 0 0 
300 1 0.49 0.01 0 
301 1 0.25 0.02 0 
302 1 0.26 0.02 0 
303 1 0.27 0.02 0 
304 1 0.28 0.02 0 
305 1 0.29 0.02 0 
306 1 0.3 0.02 0 
307 1 0.31 0.02 0 
308 1 0.32 0.02 0 
309 1 0.33 0.02 0 
310 1 0.34 0.02 0 
311 1 0.35 0.02 0 
312 1 0.36 0.02 0 
313 1 0.37 0.02 0 
314 1 0.38 0.02 0 
315 1 0.39 0.02 0 
316 1 0.4 0.02 0 
317 1 0.41 0.02 0 
318 1 0.42 0.02 0 
319 1 0.43 0.02 0 
320 1 0.44 0.02 0 
321 1 0.45 0.02 0 
322 1 0.46 0.02 0 
323 1 0.47 0.02 0 
324 1 0.48 0.02 0 
325 1 0.49 0.02 0 
326 1 0.25 0.03 0 
327 1 0.26 0.03 0 
328 1 0.27 0.03 0 
329 1 0.28 0.03 0 
330 1 0.29 0.03 0 
331 1 0.3 0.03 0 
332 1 0.31 0.03 0 
333 1 0.32 0.03 0 
334 1 0.33 0.03 0 
335 1 0.34 0.03 0 
336 1 0.35 0.03 0 
337 1 0.36 0.03 0 
338 1 0.37 0.03 0 
339 1 0.38 0.03 0 
340 1 0.39 0.03 0 
341 1 0.4 0.03 0 
342 1 0.41 0.03 0 
343 1 0.42 0.03 0 
344 1 0.43 0.03 0 
345 1 0.44 0.03 0 
346 1 0.45 0.03 0 
347 1 0.46 0.03 0 
348 1 0.47 0.03 0 
349 1 0.48 0.03 0 
350 1 0.49 0.03 0 
351 1 0.25 0.04 0 
352 1 0.26 0.04 0 
353 1 0.27 0.04 0 
354 1 0.28 0.04 0 
355 1 0.29 0.04 0 
356 1 0.3 0.04 0 
357 1 0.31 0.04 0 
358 1 0.32 0.04 0 
359 1 0.33 0.04 0 
360 1 0.34 0.04 0 
361 1 0.35 0.04 0 
362 1 0.36 0.04 0 
363 1 0.37 0.04 0 
364 1 0.38 0.04 0 
365 1 0.39 0.04 0 
366 1 0.4 0.04 0 
367 1 0.41 0.04 0 
368 1 0.42 0.04 0 
369 1 0.43 0.04 0 
370 1 0.44 0.04 0 
371 1 0.45 0.04 0 
372 1 0.46 0.04 0 
373 1 0.47 0.04 0 
374 1 0.48 0.04 0 
375 1 0.49 0.04 0 
376 1 0.25 0.05 0 
377 1 0.26 0.05 0 
378 1 0.27 0.05 0 
379 1 0.28 0.05 0 
380 1 0.29 0.05 0 
381 1 0.3 0.05 0 
382 1 0.31 0.05 0 
383 1 0.32 0.05 0 
384 1 0.33 0.05 0 
385 1 0.34 0.05 0 
386 1 0.35 0.05 0 
387 1 0.36 0.05 0 
388 1 0.37 0.05 0 
389 1 0.38 0.05 0 
390 1 0.39 0.05 0 
391 1 0.4 0.05 0 
392 1 0.41 0.05 0 
393 1 0.42 0.05 0 
394 1 0.43 0.05 0 
395 1 0.44 0.05 0 
396 1 0.45 0.05 0 
397 1 0.46 0.05 0 
398 1 0.47 0.05 0 
399 1 0.48 0.05 0 
400 1 0.49 0.05 0 
401 1 0.25 0.06 0 
402 1 0.26 0.06 0 
403 1 0.27 0.06 0 
404 1 0.28 0.06 0 
405 1 0.29 0.06 0 
406 1 0.3 0.06 0 
407 1 0.31 0.06 0 
408 1 0.32 0.06 0 
409 1 0.33 0.06 0 
410 1 0.34 0.06 0 
411 1 0.35 0.06 0 
412 1 0.36 0.06 0 
413 1 0.37 0.06 0 
414 1 0.38 0.06 0 
415 1 0.39 0.06 0 
416 1 0.4 0.06 0 
417 1 0.41 0.06 0 
418 1 0.42 0.06 0 
419 1 0.43 0.06 0 
420 1 0.44 0.06 0 
421 1 0.45 0.06 0 
422 1 0.46 0.06 0 
423 1 0.47 0.06 0 
424 1 0.48 0.06 0 
425 1 0.49 0.06 0 
426 1 0.25 0.07 0 
427 1 0.26 0.07 0 
428 1 0.27 0.07 0 
429 1 0.28 0.07 0 
430 1 0.29 0.07 0 
431 1 0.3 0.07 0 
432 1 0.31 0.07 0 
433 1 0.32 0.07 0 
434 1 0.33 0.07 0 
435 1 0.34 0.07 0 
436 1 0.35 0.07 0 
437 1 0.36 0.07 0 
438 1 0.37 0.07 0 
439 1 0.38 0.07 0 
440 1 0.39 0.07 0 
441 1 0.4 0.07 0 
442 1 0.41 0.07 0 
443 1 0.42 0.07 0 
444 1 0.43 0.07 0 
445 1 0.44 0.07 0 
446 1 0.45 0.07 0 
447 1 0.46 0.07 0 
448 1 0.47 0.07 0 
449 1 0.48 0.07 0 
450 1 0.49 0.07 0 
451 1 0.25 0.08 0 
452 1 0.26 0.08 0 
453 1 0.27 0.08 0 
454 1 0.28 0.08 0 
455 1 0.29 0.08 0 
456 1 0.3 0.08 0 
457 1 0.31 0.08 0 
458 1 0.32 0.08 0 
459 1 0.33 0.08 0 
460 1 0.34 0.08 0 
461 1 0.35 0.08 0 
462 1 0.36 0.08 0 
463 1 0.37 0.08 0 
464 1 0.38 0.08 0 
465 1 0.39 0.08 0 
466 1 0.4 0.08 0 
467 1 0.41 0.08 0 
468 1 0.42 0.08 0 
469 1 0.43 0.08 0 
470 1 0.44 0.08 0 
471 1 0.45 0.08 0 
472 1 0.46 0.08 0 
473 1 0.47 0.08 0 
474 1 0.48 0.08 0 
475 1 0.49 0.08 0 
476 1 0.25 0.09 0 
477 1 0.26 0.09 0 
478 1 0.27 0.09 0 
479 1 0.28 0.09 0 
480 1 0.29 0.09 0 
481 1 0.3 0.09 0 
482 1 0.31 0.09 0 
483 1 0.32 0.09 0 
484 1 0.33 0.09 0 
485 1 0.34 0.09 0 
486 1 0.35 0.09 0 
487 1 0.36 0.09 0 
488 1 0.37 0.09 0 
489 1 0.38 0.09 0 
490 1 0.39 0.09 0 
491 1 0.4 0.09 0 
492 1 0.41 0.09 0 
493 1 0.42 0.09 0 
494 1 0.43 0.09 0 
495 1 0.44 0.09 0 
496 1 0.45 0.09 0 
497 1 0.46 0.09 0 
498 1 0.47 0.09 0 
499 1 0.48 0.09 0 
500 1 0.49 0.09 0 
501 1 0.5 0 0 
502 1 0.51 0 0 
526 1 0.5 0.01 0 
527 1 0.51 0.01 0 
503 1 0.52 0 0 
528 1 0.52 0.01 0 
504 1 0.53 0 0 
529 1 0.53 0.01 0 
505 1 0.54 0 0 
530 1 0.54 0.01 0 
506 1 0.55 0 0 
531 1 0.55 0.01 0 
507 1 0.56 0 0 
532 1 0.56 0.01 0 
508 1 0.57 0 0 
533 1 0.57 0.01 0 
509 1 0.58 0 0 
510 1 0.59 0 0 
534 1 0.58 0.01 0 
535 1 0.59 0.01 0 
511 1 0.6 0 0 
536 1 0.6 0.01 0 
512 1 0.61 0 0 
537 1 0.61 0.01 0 
513 1 0.62 0 0 
538 1 0.62 0.01 0 
514 1 0.63 0 0 
539 1 0.63 0.01 0 
515 1 0.64 0 0 
540 1 0.64 0.01 0 
516 1 0.65 0 0 
541 1 0.65 0.01 0 
517 1 0.66 0 0 
518 1 0.67 0 0 
542 1 0.66 0.01 0 
543 1 0.67 0.01 0 
519 1 0.68 0 0 
544 1 0.68 0.01 0 
520 1 0.69 0 0 
545 1 0.69 0.01 0 
521 1 0.7 0 0 
546 1 0.7 0.01 0 
522 1 0.71 0 0 
547 1 0.71 0.01 0 
523 1 0.72 0 0 
548 1 0.72 0.01 0 
524 1 0.73 0 0 
549 1 0.73 0.01 0 
525 1 0.74 0 0 
550 1 0.74 0.01 0 
551 1 0.5 0.02 0 
552 1 0.51 0.02 0 
553 1 0.52 0.02 0 
554 1 0.53 0.02 0 
555 1 0.54 0.02 0 
556 1 0.55 0.02 0 
557 1 0.56 0.02 0 
558 1 0.57 0.02 0 
559 1 0.58 0.02 0 
560 1 0.59 0.02 0 
561 1 0.6 0.02 0 
562 1 0.61 0.02 0 
563 1 0.62 0.02 0 
564 1 0.63 0.02 0 
565 1 0.64 0.02 0 
566 1 0.65 0.02 0 
567 1 0.66 0.02 0 
568 1 0.67 0.02 0 
569 1 0.68 0.02 0 
570 1 0.69 0.02 0 
571 1 0.7 0.02 0 
572 1 0.71 0.02 0 
573 1 0.72 0.02 0 
574 1 0.73 0.02 0 
575 1 0.74 0.02 0 
576 1 0.5 0.03 0 
577 1 0.51 0.03 0 
578 1 0.52 0.03 0 
579 1 0.53 0.03 0 
580 1 0.54 0.03 0 
581 1 0.55 0.03 0 
582 1 0.56 0.03 0 
583 1 0.57 0.03 0 
584 1 0.58 0.03 0 
585 1 0.59 0.03 0 
586 1 0.6 0.03 0 
587 1 0.61 0.03 0 
588 1 0.62 0.03 0 
589 1 0.63 0.03 0 
590 1 0.64 0.03 0 
591 1 0.65 0.03 0 
592 1 0.66 0.03 0 
593 1 0.67 0.03 0 
594 1 0.68 0.03 0 
595 1 0.69 0.03 0 
596 1 0.7 0.03 0 
597 1 0.71 0.03 0 
598 1 0.72 0.03 0 
599 1 0.73 0.03 0 
600 1 0.74 0.03 0 
601 1 0.5 0.04 0 
602 1 0.51 0.04 0 
603 1 0.52 0.04 0 
604 1 0.53 0.04 0 
605 1 0.54 0.04 0 
606 1 0.55 0.04 0 
607 1 0.56 0.04 0 
608 1 0.57 0.04 0 
609 1 0.58 0.04 0 
610 1 0.59 0.04 0 
611 1 0.6 0.04 0 
612 1 0.61 0.04 0 
613 1 0.62 0.04 0 
614 1 0.63 0.04 0 
615 1 0.64 0.04 0 
616 1 0.65 0.04 0 
617 1 0.66 0.04 0 
618 1 0.67 0.04 0 
619 1 0.68 0.04 0 
620 1 0.69 0.04 0 
621 1 0.7 0.04 0 
622 1 0.71 0.04 0 
623 1 0.72 0.04 0 
624 1 0.73 0.04 0 
625 1 0.74 0.04 0 
626 1 0.5 0.05 0 
627 1 0.51 0.05 0 
628 1 0.52 0.05 0 
629 1 0.53 0.05 0 
630 1 0.54 0.05 0 
631 1 0.55 0.05 0 
632 1 0.56 0.05 0 
633 1 0.57 0.05 0 
634 1 0.58 0.05 0 
635 1 0.59 0.05 0 
636 1 0.6 0.05 0 
637 1 0.61 0.05 0 
638 1 0.62 0.05 0 
639 1 0.63 0.05 0 
640 1 0.64 0.05 0 
641 1 0.65 0.05 0 
642 1 0.66 0.05 0 
643 1 0.67 0.05 0 
644 1 0.68 0.05 0 
645 1 0.69 0.05 0 
646 1 0.7 0.05 0 
647 1 0.71 0.05 0 
648 1 0.72 0.05 0 
649 1 0.73 0.05 0 
650 1 0.74 0.05 0 
651 1 0.5 0.06 0 
652 1 0.51 0.06 0 
653 1 0.52 0.06 0 
654 1 0.53 0.06 0 
655 1 0.54 0.06 0 
656 1 0.55 0.06 0 
657 1 0.56 0.06 0 
658 1 0.57 0.06 0 
659 1 0.58 0.06 0 
660 1 0.59 0.06 0 
661 1 0.6 0.06 0 
662 1 0.61 0.06 0 
663 1 0.62 0.06 0 
664 1 0.63 0.06 0 
665 1 0.64 0.06 0 
666 1 0.65 0.06 0 
667 1 0.66 0.06 0 
668 1 0.67 0.06 0 
669 1 0.68 0.06 0 
670 1 0.69 0.06 0 
671 1 0.7 0.06 0 
672 1 0.71 0.06 0 
673 1 0.72 0.06 0 
674 1 0.73 0.06 0 
675 1 0.74 0.06 0 
676 1 0.5 0.07 0 
677 1 0.51 0.07 0 
678 1 0.52 0.07 0 
679 1 0.53 0.07 0 
680 1 0.54 0.07 0 
681 1 0.55 0.07 0 
682 1 0.56 0.07 0 
683 1 0.57 0.07 0 
684 1 0.58 0.07 0 
685 1 0.59 0.07 0 
686 1 0.6 0.07 0 
687 1 0.61 0.07 0 
688 1 0.62 0.07 0 
689 1 0.63 0.07 0 
690 1 0.64 0.07 0 
691 1 0.65 0.07 0 
692 1 0.66 0.07 0 
693 1 0.67 0.07 0 
694 1 0.68 0.07 0 
695 1 0.69 0.07 0 
696 1 0.7 0.07 0 
697 1 0.71 0.07 0 
698 1 0.72 0.07 0 
699 1 0.73 0.07 0 
700 1 0.74 0.07 0 
701 1 0.5 0.08 0 
702 1 0.51 0.08 0 
703 1 0.52 0.08 0 
704 1 0.53 0.08 0 
705 1 0.54 0.08 0 
706 1 0.55 0.08 0 
707 1 0.56 0.08 0 
708 1 0.57 0.08 0 
709 1 0.58 0.08 0 
710 1 0.59 0.08 0 
711 1 0.6 0.08 0 
712 1 0.61 0.08 0 
713 1 0.62 0.08 0 
714 1 0.63 0.08 0 
715 1 0.64 0.08 0 
716 1 0.65 0.08 0 
717 1 0.66 0.08 0 
718 1 0.67 0.08 0 
719 1 0.68 0.08 0 
720 1 0.69 0.08 0 
721 1 0.7 0.08 0 
722 1 0.71 0.08 0 
723 1 0.72 0.08 0 
724 1 0.73 0.08 0 
725 1 0.74 0.08 0 
726 1 0.5 0.09 0 
727 1 0.51 0.09 0 
728 1 0.52 0.09 0 
729 1 0.53 0.09 0 
730 1 0.54 0.09 0 
731 1 0.55 0.09 0 
732 1 0.56 0.09 0 
733 1 0.57 0.09 0 
734 1 0.58 0.09 0 
735 1 0.59 0.09 0 
736 1 0.6 0.09 0 
737 1 0.61 0.09 0 
738 1 0.62 0.09 0 
739 1 0.63 0.09 0 
740 1 0.64 0.09 0 
741 1 0.65 0.09 0 
742 1 0.66 0.09 0 
743 1 0.67 0.09 0 
744 1 0.68 0.09 0 
745 1 0.69 0.09 0 
746 1 0.7 0.09 0 
747 1 0.71 0.09 0 
748 1 0.72 0.09 0 
749 1 0.73 0.09 0 
750 1 0.74 0.09 0 
751 1 0.75 0 0 
752 1 0.76 0 0 
776 1 0.75 0.01 0 
777 1 0.76 0.01 0 
753 1 0.77 0 0 
778 1 0.77 0.01 0 
754 1 0.78 0 0 
779 1 0.78 0.01 0 
755 1 0.79 0 0 
780 1 0.79 0.01 0 
756 1 0.8 0 0 
781 1 0.8 0.01 0 
757 1 0.81 0 0 
782 1 0.81 0.01 0 
758 1 0.82 0 0 
783 1 0.82 0.01 0 
759 1 0.83 0 0 
760 1 0.84 0 0 
784 1 0.83 0.01 0 
785 1 0.84 0.01 0 
761 1 0.85 0 0 
786 1 0.85 0.01 0 
762 1 0.86 0 0 
787 1 0.86 0.01 0 
763 1 0.87 0 0 
788 1 0.87 0.01 0 
764 1 0.88 0 0 
789 1 0.88 0.01 0 
765 1 0.89 0 0 
790 1 0.89 0.01 0 
766 1 0.9 0 0 
791 1 0.9 0.01 0 
767 1 0.91 0 0 
768 1 0.92 0 0 
792 1 0.91 0.01 0 
793 1 0.92 0.01 0 
769 1 0.93 0 0 
794 1 0.93 0.01 0 
770 1 0.94 0 0 
795 1 0.94 0.01 0 
771 1 0.95 0 0 
796 1 0.95 0.01 0 
772 1 0.96 0 0 
797 1 0.96 0.01 0 
773 1 0.97 0 0 
798 1 0.97 0.01 0 
774 1 0.98 0 0 
799 1 0.98 0.01 0 
775 1 0.99 0 0 
800 1 0.99 0.01 0 
801 1 0.75 0.02 0 
802 1 0.76 0.02 0 
803 1 0.77 0.02 0 
804 1 0.78 0.02 0 
805 1 0.79 0.02 0 
806 1 0.8 0.02 0 
807 1 0.81 0.02 0 
808 1 0.82 0.02 0 
809 1 0.83 0.02 0 
810 1 0.84 0.02 0 
811 1 0.85 0.02 0 
812 1 0.86 0.02 0 
813 1 0.87 0.02 0 
814 1 0.88 0.02 0 
815 1 0.89 0.02 0 
816 1 0.9 0.02 0 
817 1 0.91 0.02 0 
818 1 0.92 0.02 0 
819 1 0.93 0.02 0 
820 1 0.94 0.02 0 
821 1 0.95 0.02 0 
822 1 0.96 0.02 0 
823 1 0.97 0.02 0 
824 1 0.98 0.02 0 
825 1 0.99 0.02 0 
826 1 0.75 0.03 0 
827 1 0.76 0.03 0 
828 1 0.77 0.03 0 
829 1 0.78 0.03 0 
830 1 0.79 0.03 0 
831 1 0.8 0.03 0 
832 1 0.81 0.03 0 
833 1 0.82 0.03 0 
834 1 0.83 0.03 0 
835 1 0.84 0.03 0 
836 1 0.85 0.03 0 
837 1 0.86 0.03 0 
838 1 0.87 0.03 0 
839 1 0.88 0.03 0 
840 1 0.89 0.03 0 
841 1 0.9 0.03 0 
842 1 0.91 0.03 0 
843 1 0.92 0.03 0 
844 1 0.93 0.03 0 
845 1 0.94 0.03 0 
846 1 0.95 0.03 0 
847 1 0.96 0.03 0 
848 1 0.97 0.03 0 
849 1 0.98 0.03 0 
850 1 0.99 0.03 0 
851 1 0.75 0.04 0 
852 1 0.76 0.04 0 
853 1 0.77 0.04 0 
854 1 0.78 0.04 0 
855 1 0.79 0.04 0 
856 1 0.8 0.04 0 
857 1 0.81 0.04 0 
858 1 0.82 0.04 0 
859 1 0.83 0.04 0 
860 1 0.84 0.04 0 
861 1 0.85 0.04 0 
862 1 0.86 0.04 0 
863 1 0.87 0.04 0 
864 1 0.88 0.04 0 
865 1 0.89 0.04 0 
866 1 0.9 0.04 0 
867 1 0.91 0.04 0 
868 1 0.92 0.04 0 
869 1 0.93 0.04 0 
870 1 0.94 0.04 0 
871 1 0.95 0.04 0 
872 1 0.96 0.04 0 
873 1 0.97 0.04 0 
874 1 0.98 0.04 0 
875 1 0.99 0.04 0 
876 1 0.75 0.05 0 
877 1 0.76 0.05 0 
878 1 0.77 0.05 0 
879 1 0.78 0.05 0 
880 1 0.79 0.05 0 
881 1 0.8 0.05 0 
882 1 0.81 0.05 0 
883 1 0.82 0.05 0 
884 1 0.83 0.05 0 
885 1 0.84 0.05 0 
886 1 0.85 0.05 0 
887 1 0.86 0.05 0 
888 1 0.87 0.05 0 
889 1 0.88 0.05 0 
890 1 0.89 0.05 0 
891 1 0.9 0.05 0 
892 1 0.91 0.05 0 
893 1 0.92 0.05 0 
894 1 0.93 0.05 0 
895 1 0.94 0.05 0 
896 1 0.95 0.05 0 
897 1 0.96 0.05 0 
898 1 0.97 0.05 0 
899 1 0.98 0.05 0 
900 1 0.99 0.05 0 
901 1 0.75 0.06 0 
902 1 0.76 0.06 0 
903 1 0.77 0.06 0 
904 1 0.78 0.06 0 
905 1 0.79 0.06 0 
906 1 0.8 0.06 0 
907 1 0.81 0.06 0 
908 1 0.82 0.06 0 
909 1 0.83 0.06 0 
910 1 0.84 0.06 0 
911 1 0.85 0.06 0 
912 1 0.86 0.06 0 
913 1 0.87 0.06 0 
914 1 0.88 0.06 0 
915 1 0.89 0.06 0 
916 1 0.9 0.06 0 
917 1 0.91 0.06 0 
918 1 0.92 0.06 0 
919 1 0.93 0.06 0 
920 1 0.94 0.06 0 
921 1 0.95 0.06 0 
922 1 0.96 0.06 0 
923 1 0.97 0.06 0 
924 1 0.98 0.06 0 
925 1 0.99 0.06 0 
926 1 0.75 0.07 0 
927 1 0.76 0.07 0 
928 1 0.77 0.07 0 
929 1 0.78 0.07 0 
930 1 0.79 0.07 0 
931 1 0.8 0.07 0 
932 1 0.81 0.07 0 
933 1 0.82 0.07 0 
934 1 0.83 0.07 0 
935 1 0.84 0.07 0 
936 1 0.85 0.07 0 
937 1 0.86 0.07 0 
938 1 0.87 0.07 0 
939 1 0.88 0.07 0 
940 1 0.89 0.07 0 
941 1 0.9 0.07 0 
942 1 0.91 0.07 0 
943 1 0.92 0.07 0 
944 1 0.93 0.07 0 
945 1 0.94 0.07 0 
946 1 0.95 0.07 0 
947 1 0.96 0.07 0 
948 1 0.97 0.07 0 
949 1 0.98 0.07 0 
950 1 0.99 0.07 0 
951 1 0.75 0.08 0 
952 1 0.76 0.08 0 
953 1 0.77 0.08 0 
954 1 0.78 0.08 0 
955 1 0.79 0.08 0 
956 1 0.8 0.08 0 
957 1 0.81 0.08 0 
958 1 0.82 0.08 0 
959 1 0.83 0.08 0 
960 1 0.84 0.08 0 
961 1 0.85 0.08 0 
962 1 0.86 0.08 0 
963 1 0.87 0.08 0 
964 1 0.88 0.08 0 
965 1 0.89 0.08 0 
966 1 0.9 0.08 0 
967 1 0.91 0.08 0 
968 1 0.92 0.08 0 
969 1 0.93 0.08 0 
970 1 0.94 0.08 0 
971 1 0.95 0.08 0 
972 1 0.96 0.08 0 
973 1 0.97 0.08 0 
974 1 0.98 0.08 0 
975 1 0.99 0.08 0 
976 1 0.75 0.09 0 
977 1 0.76 0.09 0 
978 1 0.77 0.09 0 
979 1 0.78 0.09 0 
980 1 0.79 0.09 0 
981 1 0.8 0.09 0 
982 1 0.81 0.09 0 
983 1 0.82 0.09 0 
984 1 0.83 0.09 0 
985 1 0.84 0.09 0 
986 1 0.85 0.09 0 
987 1 0.86 0.09 0 
988 1 0.87 0.09 0 
989 1 0.88 0.09 0 
990 1 0.89 0.09 0 
991 1 0.9 0.09 0 
992 1 0.91 0.09 0 
993 1 0.92 0.09 0 
994 1 0.93 0.09 0 
995 1 0.94 0.09 0 
996 1 0.95 0.09 0 
997 1 0.96 0.09 0 
998 1 0.97 0.09 0 
999 1 0.98 0.09 0 
1000 1 0.99 0.09 0 
ITEM: TIMESTEP
10
ITEM: NUMBER OF ATOMS
1000
ITEM: BOX BOUNDS ff pp pp
0.0000000000000000e+00 1.0000000000000000e+00
0.0000000000000000e+00 1.0000000000000001e-01
0.0000000000000000e+00 1.0000000000000000e-03
ITEM: ATOMS id type x y z 
1 1 0 0 0 
2 1 0.01 0 0 
26 1 0 0.01 0 
27 1 0.01 0.01 0 
3 1 0.02 0 0 
28 1 0.02 0.01 0 
4 1 0.03 0 0 
29 1 0.03 0.01 0 
5 1 0.04 0 0 
30 1 0.04 0.01 0 
6 1 0.05 0 0 
31 1 0.05 0.01 0 
7 1 0.06 0 0 
32 1 0.06 0.01 0 
8 1 0.07 0 0 
33 1 0.07 0.01 0 
9 1 0.08 0 0 
10 1 0.09 0 0 
34 1 0.08 0.01 0 
35 1 0.09 0.01 0 
11 1 0.1 0 0 
36 1 0.1 0.01 0 
12 1 0.11 0 0 
37 1 0.11 0.01 0 
13 1 0.12 0 0 
38 1 0.12 0.01 0 
14 1 0.13 0 0 
39 1 0.13 0.01 0 
15 1 0.14 0 0 
40 1 0.14 0.01 0 
16 1 0.15 0 0 
41 1 0.15 0.01 0 
17 1 0.16 0 0 
18 1 0.17 0 0 
42 1 0.16 0.01 0 
43 1 0.17 0.01 0 
19 1 0.18 0 0 
44 1 0.18 0.01 0 
20 1 0.19 0 0 
45 1 0.19 0.01 0 
21 1 0.2 0 0 
46 1 0.2 0.01 0 
22 1 0.21 0 0 
47 1 0.21 0.01 0 
23 1 0.22 0 0 
48 1 0.22 0.01 0 
24 1 0.23 0 0 
49 1 0.23 0.01 0 
25 1 0.24 0 0 
50 1 0.24 0.01 0 
51 1 0 0.02 0 
52 1 0.01 0.02 0 
53 1 0.02 0.02 0 
54 1 0.03 0.02 0 
55 1 0.04 0.02 0 
56 1 0.05 0.02 0 
57 1 0.06 0.02 0 
58 1 0.07 0.02 0 
59 1 0.08 0.02 0 
60 1 0.09 0.02 0 
61 1 0.1 0.02 0 
62 1 0.11 0.02 0 
63 1 0.12 0.02 0 
64 1 0.13 0.02 0 
65 1 0.14 0.02 0 
66 1 0.15 0.02 0 
67 1 0.16 0.02 0 
68 1 0.17 0.02 0 
69 1 0.18 0.02 0 
70 1 0.19 0.02 0 
71 1 0.2 0.02 0 
72 1 0.21 0.02 0 
73 1 0.22 0.02 0 
74 1 0.23 0.02 0 
75 1 0.24 0.02 0 
76 1 0 0.03 0 
77 1 0.01 0.03 0 
78 1 0.02 0.03 0 
79 1 0.03 0.03 0 
80 1 0.04 0.03 0 
81 1 0.05 0.03 0 
82 1 0.06 0.03 0 
83 1 0.07 0.03 0 
84 1 0.08 0.03 0 
85 1 0.09 0.03 0 
86 1 0.1 0.03 0 
87 1 0.11 0.03 0 
88 1 0.12 0.03 0 
89 1 0.13 0.03 0 
90 1 0.14 0.03 0 
91 1 0.15 0.03 0 
92 1 0.16 0.03 0 
93 1 0.17 0.03 0 
94 1 0.18 0.03 0 
95 1 0.19 0.03 0 
96 1 0.2 0.03 0 
97 1 0.21 0.03 0 
98 1 0.22 0.03 0 
99 1 0.23 0.03 0 
100 1 0.24 0.03 0 
101 1 0 0.04 0 
102 1 0.01 0.04 0 
103 1 0.02 0.04 0 
104 1 0.03 0.04 0 
105 1 0.04 0.04 0 
106 1 0.05 0.04 0 
107 1 0.06 0.04 0 
108 1 0.07 0.04 0 
109 1 0.08 0.04 0 
110 1 0.09 0.04 0 
111 1 0.1 0.04 0 
112 1 0.11 0.04 0 
113 1 0.12 0.04 0 
114 1 0.13 0.04 0 
115 1 0.14 0.04 0 
116 1 0.15 0.04 0 
117 1 0.16 0.04 0 
118 1 0.17 0.04 0 
119 1 0.18 0.04 0 
120 1 0.19 0.04 0 
121 1 0.2 0.04 0 
122 1 0.21 0.04 0 
123 1 0.22 0.04 0 
124 1 0.23 0.04 0 
125 1 0.24 0.04 0 
126 1 0 0.05 0 
127 1 0.01 0.05 0 
128 1 0.02 0.05 0 
129 1 0.03 0.05 0 
130 1 0.04 0.05 0 
131 1 0.05 0.05 0 
132 1 0.06 0.05 0 
133 1 0.07 0.05 0 
134 1 0.08 0.05 0 
135 1 0.09 0.05 0 
136 1 0.1 0.05 0 
137 1 0.11 0.05 0 
138 1 0.12 0.05 0 
139 1 0.13 0.05 0 
140 1 0.14 0.05 0 
141 1 0.15 0.05 0 
142 1 0.16 0.05 0 
143 1 0.17 0.05 0 
144 1 0.18 0.05 0 
145 1 0.19 0.05 0 
146 1 0.2 0.05 0 
147 1 0.21 0.05 0 
148 1 0.22 0.05 0 
149 1 0.23 0.05 0 
150 1 0.24 0.05 0 
151 1 0 0.06 0 
152 1 0.01 0.06 0 
153 1 0.02 0.06 0 
154 1 0.03 0.06 0 
155 1 0.04 0.06 0 
156 1 0.05 0.06 0 
157 1 0.06 0.06 0 
158 1 0.07 0.06 0 
159 1 0.08 0.06 0 
160 1 0.09 0.06 0 
161 1 0.1 0.06 0 
162 1 0.11 0.06 0 
163 1 0.12 0.06 0 
164 1 0.13 0.06 0 
165 1 0.14 0.06 0 
166 1 0.15 0.06 0 
167 1 0.16 0.06 0 
168 1 0.17 0.06 0 
169 1 0.18 0.06 0 
170 1 0.19 0.06 0 
171 1 0.2 0.06 0 
172 1 0.21 0.06 0 
173 1 0.22 0.06 0 
174 1 0.23 0.06 0 
175 1 0.24 0.06 0 
176 1 0 0.07 0 
177 1 0.01 0.07 0 
178 1 0.02 0.07 0 
179 1 0.03 0.07 0 
180 1 0.04 0.07 0 
181 1 0.05 0.07 0 
182 1 0.06 0.07 0 
183 1 0.07 0.07 0 
184 1 0.08 0.07 0 
185 1 0.09 0.07 0 
186 1 0.1 0.07 0 
187 1 0.11 0.07 0 
188 1 0.12 0.07 0 
189 1 0.13 0.07 0 
190 1 0.14 0.07 0 
191 1 0.15 0.07 0 
192 1 0.16 0.07 0 
193 1 0.17 0.07 0 
194 1 0.18 0.07 0 
195 1 0.19 0.07 0 
196 1 0.2 0.07 0 
197 1 0.21 0.07 0 
198 1 0.22 0.07 0 
199 1 0.23 0.07 0 
200 1 0.24 0.07 0 
201 1 0 0.08 0 
202 1 0.01 0.08 0 
203 1 0.02 0.08 0 
204 1 0.03 0.08 0 
205 1 0.04 0.08 0 
206 1 0.05 0.08 0 
207 1 0.06 0.08 0 
208 1 0.07 0.08 0 
209 1 0.08 0.08 0 
210 1 0.09 0.08 0 
211 1 0.1 0.08 0 
212 1 0.11 0.08 0 
213 1 0.12 0.08 0 
214 1 0.13 0.08 0 
215 1 0.14 0.08 0 
216 1 0.15 0.08 0 
217 1 0.16 0.08 0 
218 1 0.17 0.08 0 
219 1 0.18 0.08 0 
220 1 0.19 0.08 0 
221 1 0.2 0.08 0 
222 1 0.21 0.08 0 
223 1 0.22 0.08 0 
224 1 0.23 0.08 0 
225 1 0.24 0.08 0 
226 1 0 0.09 0 
227 1 0.01 0.09 0 
228 1 0.02 0.09 0 
229 1 0.03 0.09 0 
230 1 0.04 0.09 0 
231 1 0.05 0.09 0 
232 1 0.06 0.09 0 
233 1 0.07 0.09 0 
234 1 0.08 0.09 0 
235 1 0.09 0.09 0 
236 1 0.1 0.09 0 
237 1 0.11 0.09 0 
238 1 0.12 0.09 0 
239 1 0.13 0.09 0 
240 1 0.14 0.09 0 
241 1 0.15 0.09 0 
242 1 0.16 0.09 0 
243 1 0.17 0.09 0 
244 1 0.18 0.09 0 
245 1 0.19 0.09 0 
246 1 0.2 0.09 0 
247 1 0.21 0.09 0 
248 1 0.22 0.09 0 
249 1 0.23 0.09 0 
250 1 0.24 0.09 0 
251 1 0.25 0 0 
252 1 0.26 0 0 
276 1 0.25 0.01 0 
277 1 0.26 0.01 0 
253 1 0.27 0 0 
278 1 0.27 0.01 0 
254 1 0.28 0 0 
279 1 0.28 0.01 0 
255 1 0.29 0 0 
280 1 0.29 0.01 0 
256 1 0.3 0 0 
281 1 0.3 0.01 0 
257 1 0.31 0 0 
282 1 0.31 0.01 0 
258 1 0.32 0 0 
283 1 0.32 0.01 0 
259 1 0.33 0 0 
260 1 0.34 0 0 
284 1 0.33 0.01 0 
285 1 0.34 0.01 0 
261 1 0.35 0 0 
286 1 0.35 0.01 0 
262 1 0.36 0 0 
287 1 0.36 0.01 0 
263 1 0.37 0 0 
288 1 0.37 0.01 0 
264 1 0.38 0 0 
289 1 0.38 0.01 0 
265 1 0.39 0 0 
290 1 0.39 0.01 0 
266 1 0.4 0 0 
291 1 0.4 0.01 0 
267 1 0.41 0 0 
268 1 0.42 0 0 
292 1 0.41 0.01 0 
293 1 0.42 0.01 0 
269 1 0.43 0 0 
294 1 0.43 0.01 0 
270 1 0.44 0 0 
295 1 0.44 0.01 0 
271 1 0.45 0 0 
296 1 0.45 0.01 0 
272 1 0.46 0 0 
297 1 0.46 0.01 0 
273 1 0.47 0 0 
298 1 0.47 0.01 0 
274 1 0.48 0 0 
299 1 0.48 0.01 0 
275 1 0.49 0 0 
300 1 0.49 0.01 0 
301 1 0.25 0.02 0 
302 1 0.26 0.02 0 
303 1 0.27 0.02 0 
304 1 0.28 0.02 0 
305 1 0.29 0.02 0 
306 1 0.3 0.02 0 
307 1 0.31 0.02 0 
308 1 0.32 0.02 0 
309 1 0.33 0.02 0 
310 1 0.34 0.02 0 
311 1 0.35 0.02 0 
312 1 0.36 0.02 0 
313 1 0.37 0.02 0 
314 1 0.38 0.02 0 
315 1 0.39 0.02 0 
316 1 0.4 0.02 0 
317 1 0.41 0.02 0 
318 1 0.42 0.02 0 
319 1 0.43 0.02 0 
320 1 0.44 0.02 0 
321 1 0.45 0.02 0 
322 1 0.46 0.02 0 
323 1 0.47 0.02 0 
324 1 0.48 0.02 0 
325 1 0.49 0.02 0 
326 1 0.25 0.03 0 
327 1 0.26 0.03 0 
328 1 0.27 0.03 0 
329 1 0.28 0.03 0 
330 1 0.29 0.03 0 
331 1 0.3 0.03 0 
332 1 0.31 0.03 0 
333 1 0.32 0.03 0 
334 1 0.33 0.03 0 
335 1 0.34 0.03 0 
336 1 0.35 0.03 0 
337 1 0.36 0.03 0 
338 1 0.37 0.03 0 
339 1 0.38 0.03 0 
340 1 0.39 0.03 0 
341 1 0.4 0.03 0 
342 1 0.41 0.03 0 
343 1 0.42 0.03 0 
344 1 0.43 0.03 0 
345 1 0.44 0.03 0 
346 1 0.45 0.03 0 
347 1 0.46 0.03 0 
348 1 0.47 0.03 0 
349 1 0.48 0.03 0 
350 1 0.49 0.03 0 
351 1 0.25 0.04 0 
352 1 0.26 0.04 0 
353 1 0.27 0.04 0 
354 1 0.28 0.04 0 
355 1 0.29 0.04 0 
356 1 0.3 0.04 0 
357 1 0.31 0.04 0 
358 1 0.32 0.04 0 
359 1 0.33 0.04 0 
360 1 0.34 0.04 0 
361 1 0.35 0.04 0 
362 1 0.36 0.04 0 
363 1 0.37 0.04 0 
364 1 0.38 0.04 0 
365 1 0.39 0.04 0 
366 1 0.4 0.04 0 
367 1 0.41 0.04 0 
368 1 0.42 0.04 0 
369 1 0.43 0.04 0 
370 1 0.44 0.04 0 
371 1 0.45 0.04 0 
372 1 0.46 0.04 0 
373 1 0.47 0.04 0 
374 1 0.48 0.04 0 
375 1 0.49 0.04 0 
376 1 0.25 0.05 0 
377 1 0.26 0.05 0 
378 1 0.27 0.05 0 
379 1 0.28 0.05 0 
380 1 0.29 0.05 0 
381 1 0.3 0.05 0 
382 1 0.31 0.05 0 
383 1 0.32 0.05 0 
384 1 0.33 0.05 0 
385 1 0.34 0.05 0 
386 1 0.35 0.05 0 
387 1 0.36 0.05 0 
388 1 0.37 0.05 0 
389 1 0.38 0.05 0 
390 1 0.39 0.05 0 
391 1 0.4 0.05 0 
392 1 0.41 0.05 0 
393 1 0.42 0.05 0 
394 1 0.43 0.05 0 
395 1 0.44 0.05 0 
396 1 0.45 0.05 0 
397 1 0.46 0.05 0 
398 1 0.47 0.05 0 
399 1 0.48 0.05 0 
400 1 0.49 0.05 0 
401 1 0.25 0.06 0 
402 1 0.26 0.06 0 
403 1 0.27 0.06 0 
404 1 0.28 0.06 0 
405 1 0.29 0.06 0 
406 1 0.3 0.06 0 
407 1 0.31 0.06 0 
408 1 0.32 0.06 0 
409 1 0.33 0.06 0 
410 1 0.34 0.06 0 
411 1 0.35 0.06 0 
412 1 0.36 0.06 0 
413 1 0.37 0.06 0 
414 1 0.38 0.06 0 
415 1 0.39 0.06 0 
416 1 0.4 0.06 0 
417 1 0.41 0.06 0 
418 1 0.42 0.06 0 
419 1 0.43 0.06 0 
420 1 0.44 0.06 0 
421 1 0.45 0.06 0 
422 1 0.46 0.06 0 
423 1 0.47 0.06 0 
424 1 0.48 0.06 0 
425 1 0.49 0.06 0 
426 1 0.25 0.07 0 
427 1 0.26 0.07 0 
428 1 0.27 0.07 0 
429 1 0.28 0.07 0 
430 1 0.29 0.07 0 
431 1 0.3 0.07 0 
432 1 0.31 0.07 0 
433 1 0.32 0.07 0 
434 1 0.33 0.07 0 
435 1 0.34 0.07 0 
436 1 0.35 0.07 0 
437 1 0.36 0.07 0 
438 1 0.37 0.07 0 
439 1 0.38 0.07 0 
440 1 0.39 0.07 0 
441 1 0.4 0.07 0 
442 1 0.41 0.07 0 
443 1 0.42 0.07 0 
444 1 0.43 0.07 0 
445 1 0.44 0.07 0 
446 1 0.45 0.07 0 
447 1 0.46 0.07 0 
448 1 0.47 0.07 0 
449 1 0.48 0.07 0 
450 1 0.49 0.07 0 
451 1 0.25 0.08 0 
452 1 0.26 0.08 0 
453 1 0.27 0.08 0 
454 1 0.28 0.08 0 
455 1 0.29 0.08 0 
456 1 0.3 0.08 0 
457 1 0.31 0.08 0 
458 1 0.32 0.08 0 
459 1 0.33 0.08 0 
460 1 0.34 0.08 0 
461 1 0.35 0.08 0 
462 1 0.36 0.08 0 
463 1 0.37 0.08 0 
464 1 0.38 0.08 0 
465 1 0.39 0.08 0 
466 1 0.4 0.08 0 
467 1 0.41 0.08 0 
468 1 0.42 0.08 0 
469 1 0.43 0.08 0 
470 1 0.44 0.08 0 
471 1 0.45 0.08 0 
472 1 0.46 0.08 0 
473 1 0.47 0.08 0 
474 1 0.48 0.08 0 
475 1 0.49 0.08 0 
476 1 0.25 0.09 0 
477 1 0.26 0.09 0 
478 1 0.27 0.09 0 
479 1 0.28 0.09 0 
480 1 0.29 0.09 0 
481 1 0.3 0.09 0 
482 1 0.31 0.09 0 
483 1 0.32 0.09 0 
484 1 0.33 0.09 0 
485 1 0.34 0.09 0 
486 1 0.35 0.09 0 
487 1 0.36 0.09 0 
488 1 0.37 0.09 0 
489 1 0.38 0.09 0 
490 1 0.39 0.09 0 
491 1 0.4 0.09 0 
492 1 0.41 0.09 0 
493 1 0.42 0.09 0 
494 1 0.43 0.09 0 
495 1 0.44 0.09 0 
496 1 0.45 0.09 0 
497 1 0.46 0.09 0 
498 1 0.47 0.09 0 
499 1 0.48 0.09 0 
500 1 0.49 0.09 0 
501 1 0.5 0 0 
502 1 0.51 0 0 
526 1 0.5 0.01 0 
527 1 0.51 0.01 0 
503 1 0.52 0 0 
528 1 0.52 0.01 0 
504 1 0.53 0 0 
529 1 0.53 0.01 0 
505 1 0.54 0 0 
530 1 0.54 0.01 0 
506 1 0.55 0 0 
531 1 0.55 0.01 0 
507 1 0.56 0 0 
532 1 0.56 0.01 0 
508 1 0.57 0 0 
533 1 0.57 0.01 0 
509 1 0.58 0 0 
510 1 0.59 0 0 
534 1 0.58 0.01 0 
535 1 0.59 0.01 0 
511 1 0.6 0 0 
536 1 0.6 0.01 0 
512 1 0.61 0 0 
537 1 0.61 0.01 0 
513 1 0.62 0 0 
538 1 0.62 0.01 0 
514 1 0.63 0 0 
539 1 0.63 0.01 0 
515 1 0.64 0 0 
540 1 0.64 0.01 0 
516 1 0.65 0 0 
541 1 0.65 0.01 0 
517 1 0.66 0 0 
518 1 0.67 0 0 
542 1 0.66 0.01 0 
543 1 0.67 0.01 0 
519 1 0.68 0 0 
544 1 0.68 0.01 0 
520 1 0.69 0 0 
545 1 0.69 0.01 0 
521 1 0.7 0 0 
546 1 0.7 0.01 0 
522 1 0.71 0 0 
547 1 0.71 0.01 0 
523 1 0.72 0 0 
548 1 0.72 0.01 0 
524 1 0.73 0 0 
549 1 0.73 0.01 0 
525 1 0.74 0 0 
550 1 0.74 0.01 0 
551 1 0.5 0.02 0 
552 1 0.51 0.02 0 
553 1 0.52 0.02 0 
554 1 0.53 0.02 0 
555 1 0.54 0.02 0 
556 1 0.55 0.02 0 
557 1 0.56 0.02 0 
558 1 0.57 0.02 0 
559 1 0.58 0.02 0 
560 1 0.59 0.02 0 
561 1 0.6 0.02 0 
562 1 0.61 0.02 0 
563 1 0.62 0.02 0 
564 1 0.63 0.02 0 
565 1 0.64 0.02 0 
566 1 0.65 0.02 0 
567 1 0.66 0.02 0 
568 1 0.67 0.02 0 
569 1 0.68 0.02 0 
570 1 0.69 0.02 0 
571 1 0.7 0.02 0 
572 1 0.71 0.02 0 
573 1 0.72 0.02 0 
574 1 0.73 0.02 0 
575 1 0.74 0.02 0 
576 1 0.5 0.03 0 
577 1 0.51 0.03 0 
578 1 0.52 0.03 0 
579 1 0.53 0.03 0 
580 1 0.54 0.03 0 
581 1 0.55 0.03 0 
582 1 0.56 0.03 0 
583 1 0.57 0.03 0 
584 1 0.58 0.03 0 
585 1 0.59 0.03 0 
586 1 0.6 0.03 0 
587 1 0.61 0.03 0 
588 1 0.62 0.03 0 
589 1 0.63 0.03 0 
590 1 0.64 0.03 0 
591 1 0.65 0.03 0 
592 1 0.66 0.03 0 
593 1 0.67 0.03 0 
594 1 0.68 0.03 0 
595 1 0.69 0.03 0 
596 1 0.7 0.03 0 
597 1 0.71 0.03 0 
598 1 0.72 0.03 0 
599 1 0.73 0.03 0 
600 1 0.74 0.03 0 
601 1 0.5 0.04 0 
602 1 0.51 0.04 0 
603 1 0.52 0.04 0 