ITEM: TIMESTEP
160
ITEM: NUMBER OF ATOMS
1000
ITEM: BOX BOUNDS ff pp pp
0.0000000000000000e+00 1.0000000000000000e+00
0.0000000000000000e+00 1.0000000000000001e-01
0.0000000000000000e+00 1.0000000000000000e-03
ITEM: ATOMS id type x y z c_ie_atom 
1 1 0 0 0 1 
2 1 0.01 0 0 1 
26 1 0 0.01 0 1 
27 1 0.01 0.01 0 1 
3 1 0.02 0 0 1 
28 1 0.02 0.01 0 1 
4 1 0.03 0 0 1 
29 1 0.03 0.01 0 1 
5 1 0.04 0 0 1 
30 1 0.04 0.01 0 1 
6 1 0.05 0 0 1 
31 1 0.05 0.01 0 1 
7 1 0.06 0 0 1 
32 1 0.06 0.01 0 1 
8 1 0.07 0 0 1 
33 1 0.07 0.01 0 1 
9 1 0.08 0 0 1 
10 1 0.09 0 0 1 
34 1 0.08 0.01 0 1 
35 1 0.09 0.01 0 1 
11 1 0.1 0 0 1 
36 1 0.1 0.01 0 1 
12 1 0.11 0 0 1 
37 1 0.11 0.01 0 1 
13 1 0.12 0 0 1 
38 1 0.12 0.01 0 1 
14 1 0.13 0 0 1 
39 1 0.13 0.01 0 1 
15 1 0.14 0 0 1 
40 1 0.14 0.01 0 1 
16 1 0.15 0 0 1 
41 1 0.15 0.01 0 1 
17 1 0.16 0 0 1 
18 1 0.17 0 0 1 
42 1 0.16 0.01 0 1 
43 1 0.17 0.01 0 1 
19 1 0.18 0 0 1 
44 1 0.18 0.01 0 1 
20 1 0.19 0 0 1 
45 1 0.19 0.01 0 1 
21 1 0.2 0 0 1 
46 1 0.2 0.01 0 1 
22 1 0.21 0 0 1 
47 1 0.21 0.01 0 1 
23 1 0.22 0 0 1 
48 1 0.22 0.01 0 1 
24 1 0.23 0 0 1 
49 1 0.23 0.01 0 1 
25 1 0.24 0 0 1 
50 1 0.24 0.01 0 1 
51 1 0 0.02 0 1 
52 1 0.01 0.02 0 1 
53 1 0.02 0.02 0 1 
54 1 0.03 0.02 0 1 
55 1 0.04 0.02 0 1 
56 1 0.05 0.02 0 1 
57 1 0.06 0.02 0 1 
58 1 0.07 0.02 0 1 
59 1 0.08 0.02 0 1 
60 1 0.09 0.02 0 1 
61 1 0.1 0.02 0 1 
62 1 0.11 0.02 0 1 
63 1 0.12 0.02 0 1 
64 1 0.13 0.02 0 1 
65 1 0.14 0.02 0 1 
66 1 0.15 0.02 0 1 
67 1 0.16 0.02 0 1 
68 1 0.17 0.02 0 1 
69 1 0.18 0.02 0 1 
70 1 0.19 0.02 0 1 
71 1 0.2 0.02 0 1 
72 1 0.21 0.02 0 1 
73 1 0.22 0.02 0 1 
74 1 0.23 0.02 0 1 
75 1 0.24 0.02 0 1 
76 1 0 0.03 0 1 
77 1 0.01 0.03 0 1 
78 1 0.02 0.03 0 1 
79 1 0.03 0.03 0 1 
80 1 0.04 0.03 0 1 
81 1 0.05 0.03 0 1 
82 1 0.06 0.03 0 1 
83 1 0.07 0.03 0 1 
84 1 0.08 0.03 0 1 
85 1 0.09 0.03 0 1 
86 1 0.1 0.03 0 1 
87 1 0.11 0.03 0 1 
88 1 0.12 0.03 0 1 
89 1 0.13 0.03 0 1 
90 1 0.14 0.03 0 1 
91 1 0.15 0.03 0 1 
92 1 0.16 0.03 0 1 
93 1 0.17 0.03 0 1 
94 1 0.18 0.03 0 1 
95 1 0.19 0.03 0 1 
96 1 0.2 0.03 0 1 
97 1 0.21 0.03 0 1 
98 1 0.22 0.03 0 1 
99 1 0.23 0.03 0 1 
100 1 0.24 0.03 0 1 
101 1 0 0.04 0 1 
102 1 0.01 0.04 0 1 
103 1 0.02 0.04 0 1 
104 1 0.03 0.04 0 1 
105 1 0.04 0.04 0 1 
106 1 0.05 0.04 0 1 
107 1 0.06 0.04 0 1 
108 1 0.07 0.04 0 1 
109 1 0.08 0.04 0 1 
110 1 0.09 0.04 0 1 
111 1 0.1 0.04 0 1 
112 1 0.11 0.04 0 1 
113 1 0.12 0.04 0 1 
114 1 0.13 0.04 0 1 
115 1 0.14 0.04 0 1 
116 1 0.15 0.04 0 1 
117 1 0.16 0.04 0 1 
118 1 0.17 0.04 0 1 
119 1 0.18 0.04 0 1 
120 1 0.19 0.04 0 1 
121 1 0.2 0.04 0 1 
122 1 0.21 0.04 0 1 
123 1 0.22 0.04 0 1 
124 1 0.23 0.04 0 1 
125 1 0.24 0.04 0 1 
126 1 0 0.05 0 1 
127 1 0.01 0.05 0 1 
128 1 0.02 0.05 0 1 
129 1 0.03 0.05 0 1 
130 1 0.04 0.05 0 1 
131 1 0.05 0.05 0 1 
132 1 0.06 0.05 0 1 
133 1 0.07 0.05 0 1 
134 1 0.08 0.05 0 1 
135 1 0.09 0.05 0 1 
136 1 0.1 0.05 0 1 
137 1 0.11 0.05 0 1 
138 1 0.12 0.05 0 1 
139 1 0.13 0.05 0 1 
140 1 0.14 0.05 0 1 
141 1 0.15 0.05 0 1 
142 1 0.16 0.05 0 1 
143 1 0.17 0.05 0 1 
144 1 0.18 0.05 0 1 
145 1 0.19 0.05 0 1 
146 1 0.2 0.05 0 1 
147 1 0.21 0.05 0 1 
148 1 0.22 0.05 0 1 
149 1 0.23 0.05 0 1 
150 1 0.24 0.05 0 1 
151 1 0 0.06 0 1 
152 1 0.01 0.06 0 1 
153 1 0.02 0.06 0 1 
154 1 0.03 0.06 0 1 
155 1 0.04 0.06 0 1 
156 1 0.05 0.06 0 1 
157 1 0.06 0.06 0 1 
158 1 0.07 0.06 0 1 
159 1 0.08 0.06 0 1 
160 1 0.09 0.06 0 1 
161 1 0.1 0.06 0 1 
162 1 0.11 0.06 0 1 
163 1 0.12 0.06 0 1 
164 1 0.13 0.06 0 1 
165 1 0.14 0.06 0 1 
166 1 0.15 0.06 0 1 
167 1 0.16 0.06 0 1 
168 1 0.17 0.06 0 1 
169 1 0.18 0.06 0 1 
170 1 0.19 0.06 0 1 
171 1 0.2 0.06 0 1 
172 1 0.21 0.06 0 1 
173 1 0.22 0.06 0 1 
174 1 0.23 0.06 0 1 
175 1 0.24 0.06 0 1 
176 1 0 0.07 0 1 
177 1 0.01 0.07 0 1 
178 1 0.02 0.07 0 1 
179 1 0.03 0.07 0 1 
180 1 0.04 0.07 0 1 
181 1 0.05 0.07 0 1 
182 1 0.06 0.07 0 1 
183 1 0.07 0.07 0 1 
184 1 0.08 0.07 0 1 
185 1 0.09 0.07 0 1 
186 1 0.1 0.07 0 1 
187 1 0.11 0.07 0 1 
188 1 0.12 0.07 0 1 
189 1 0.13 0.07 0 1 
190 1 0.14 0.07 0 1 
191 1 0.15 0.07 0 1 
192 1 0.16 0.07 0 1 
193 1 0.17 0.07 0 1 
194 1 0.18 0.07 0 1 
195 1 0.19 0.07 0 1 
196 1 0.2 0.07 0 1 
197 1 0.21 0.07 0 1 
198 1 0.22 0.07 0 1 
199 1 0.23 0.07 0 1 
200 1 0.24 0.07 0 1 
201 1 0 0.08 0 1 
202 1 0.01 0.08 0 1 
203 1 0.02 0.08 0 1 
204 1 0.03 0.08 0 1 
205 1 0.04 0.08 0 1 
206 1 0.05 0.08 0 1 
207 1 0.06 0.08 0 1 
208 1 0.07 0.08 0 1 
209 1 0.08 0.08 0 1 
210 1 0.09 0.08 0 1 
211 1 0.1 0.08 0 1 
212 1 0.11 0.08 0 1 
213 1 0.12 0.08 0 1 
214 1 0.13 0.08 0 1 
215 1 0.14 0.08 0 1 
216 1 0.15 0.08 0 1 
217 1 0.16 0.08 0 1 
218 1 0.17 0.08 0 1 
219 1 0.18 0.08 0 1 
220 1 0.19 0.08 0 1 
221 1 0.2 0.08 0 1 
222 1 0.21 0.08 0 1 
223 1 0.22 0.08 0 1 
224 1 0.23 0.08 0 1 
225 1 0.24 0.08 0 1 
226 1 0 0.09 0 1 
227 1 0.01 0.09 0 1 
228 1 0.02 0.09 0 1 
229 1 0.03 0.09 0 1 
230 1 0.04 0.09 0 1 
231 1 0.05 0.09 0 1 
232 1 0.06 0.09 0 1 
233 1 0.07 0.09 0 1 
234 1 0.08 0.09 0 1 
235 1 0.09 0.09 0 1 
236 1 0.1 0.09 0 1 
237 1 0.11 0.09 0 1 
238 1 0.12 0.09 0 1 
239 1 0.13 0.09 0 1 
240 1 0.14 0.09 0 1 
241 1 0.15 0.09 0 1 
242 1 0.16 0.09 0 1 
243 1 0.17 0.09 0 1 
244 1 0.18 0.09 0 1 
245 1 0.19 0.09 0 1 
246 1 0.2 0.09 0 1 
247 1 0.21 0.09 0 1 
248 1 0.22 0.09 0 1 
249 1 0.23 0.09 0 1 
250 1 0.24 0.09 0 1 
251 1 0.25 0 0 1 
252 1 0.26 0 0 1 
276 1 0.25 0.01 0 1 
277 1 0.26 0.01 0 1 
253 1 0.27 0 0 1 
278 1 0.27 0.01 0 1 
254 1 0.28 0 0 1 
279 1 0.28 0.01 0 1 
255 1 0.29 0 0 1 
280 1 0.29 0.01 0 1 
256 1 0.3 0 0 1 
281 1 0.3 0.01 0 1 
257 1 0.31 0 0 1 
282 1 0.31 0.01 0 1 
258 1 0.32 0 0 1 
283 1 0.32 0.01 0 1 
259 1 0.33 0 0 1 
260 1 0.34 0 0 1 
284 1 0.33 0.01 0 1 
285 1 0.34 0.01 0 1 
261 1 0.35 0 0 1 
286 1 0.35 0.01 0 1 
262 1 0.36 0 0 1 
287 1 0.36 0.01 0 1 
263 1 0.37 0 0 1.00001 
288 1 0.37 0.01 0 1.00001 
264 1 0.38 0 0 1.00005 
289 1 0.38 0.01 0 1.00005 
265 1 0.39 0 0 1.00017 
290 1 0.39 0.01 0 1.00017 
266 1 0.4 0 0 1.00055 
291 1 0.4 0.01 0 1.00055 
267 1 0.41 0 0 1.00164 
268 1 0.42 0 0 1.00449 
292 1 0.41 0.01 0 1.00164 
293 1 0.42 0.01 0 1.00449 
269 1 0.43 0 0 1.01132 
294 1 0.43 0.01 0 1.01132 
270 1 0.44 0 0 1.02614 
295 1 0.44 0.01 0 1.02614 
271 1 0.45 0 0 1.05516 
296 1 0.45 0.01 0 1.05516 
272 1 0.46 0 0 1.10604 
297 1 0.46 0.01 0 1.10604 
273 1 0.47 0 0 1.18546 
298 1 0.47 0.01 0 1.18546 
274 1 0.48 0 0 1.29518 
299 1 0.48 0.01 0 1.29518 
275 1 0.49 0 0 1.4287 
300 1 0.49 0.01 0 1.4287 
301 1 0.25 0.02 0 1 
302 1 0.26 0.02 0 1 
303 1 0.27 0.02 0 1 
304 1 0.28 0.02 0 1 
305 1 0.29 0.02 0 1 
306 1 0.3 0.02 0 1 
307 1 0.31 0.02 0 1 
308 1 0.32 0.02 0 1 
309 1 0.33 0.02 0 1 
310 1 0.34 0.02 0 1 
311 1 0.35 0.02 0 1 
312 1 0.36 0.02 0 1 
313 1 0.37 0.02 0 1.00001 
314 1 0.38 0.02 0 1.00005 
315 1 0.39 0.02 0 1.00017 
316 1 0.4 0.02 0 1.00055 
317 1 0.41 0.02 0 1.00164 
318 1 0.42 0.02 0 1.00449 
319 1 0.43 0.02 0 1.01132 
320 1 0.44 0.02 0 1.02614 
321 1 0.45 0.02 0 1.05516 
322 1 0.46 0.02 0 1.10604 
323 1 0.47 0.02 0 1.18546 
324 1 0.48 0.02 0 1.29518 
325 1 0.49 0.02 0 1.4287 
326 1 0.25 0.03 0 1 
327 1 0.26 0.03 0 1 
328 1 0.27 0.03 0 1 
329 1 0.28 0.03 0 1 
330 1 0.29 0.03 0 1 
331 1 0.3 0.03 0 1 
332 1 0.31 0.03 0 1 
333 1 0.32 0.03 0 1 
334 1 0.33 0.03 0 1 
335 1 0.34 0.03 0 1 
336 1 0.35 0.03 0 1 
337 1 0.36 0.03 0 1 
338 1 0.37 0.03 0 1.00001 
339 1 0.38 0.03 0 1.00005 
340 1 0.39 0.03 0 1.00017 
341 1 0.4 0.03 0 1.00055 
342 1 0.41 0.03 0 1.00164 
343 1 0.42 0.03 0 1.00449 
344 1 0.43 0.03 0 1.01132 
345 1 0.44 0.03 0 1.02614 
346 1 0.45 0.03 0 1.05516 
347 1 0.46 0.03 0 1.10604 
348 1 0.47 0.03 0 1.18546 
349 1 0.48 0.03 0 1.29518 
350 1 0.49 0.03 0 1.4287 
351 1 0.25 0.04 0 1 
352 1 0.26 0.04 0 1 
353 1 0.27 0.04 0 1 
354 1 0.28 0.04 0 1 
355 1 0.29 0.04 0 1 
356 1 0.3 0.04 0 1 
357 1 0.31 0.04 0 1 
358 1 0.32 0.04 0 1 
359 1 0.33 0.04 0 1 
360 1 0.34 0.04 0 1 
361 1 0.35 0.04 0 1 
362 1 0.36 0.04 0 1 
363 1 0.37 0.04 0 1.00001 
364 1 0.38 0.04 0 1.00005 
365 1 0.39 0.04 0 1.00017 
366 1 0.4 0.04 0 1.00055 
367 1 0.41 0.04 0 1.00164 
368 1 0.42 0.04 0 1.00449 
369 1 0.43 0.04 0 1.01132 
370 1 0.44 0.04 0 1.02614 
371 1 0.45 0.04 0 1.05516 
372 1 0.46 0.04 0 1.10604 
373 1 0.47 0.04 0 1.18546 
374 1 0.48 0.04 0 1.29518 
375 1 0.49 0.04 0 1.4287 
376 1 0.25 0.05 0 1 
377 1 0.26 0.05 0 1 
378 1 0.27 0.05 0 1 
379 1 0.28 0.05 0 1 
380 1 0.29 0.05 0 1 
381 1 0.3 0.05 0 1 
382 1 0.31 0.05 0 1 
383 1 0.32 0.05 0 1 
384 1 0.33 0.05 0 1 
385 1 0.34 0.05 0 1 
386 1 0.35 0.05 0 1 
387 1 0.36 0.05 0 1 
388 1 0.37 0.05 0 1.00001 
389 1 0.38 0.05 0 1.00005 
390 1 0.39 0.05 0 1.00017 
391 1 0.4 0.05 0 1.00055 
392 1 0.41 0.05 0 1.00164 
393 1 0.42 0.05 0 1.00449 
394 1 0.43 0.05 0 1.01132 
395 1 0.44 0.05 0 1.02614 
396 1 0.45 0.05 0 1.05516 
397 1 0.46 0.05 0 1.10604 
398 1 0.47 0.05 0 1.18546 
399 1 0.48 0.05 0 1.29518 
400 1 0.49 0.05 0 1.4287 
401 1 0.25 0.06 0 1 
402 1 0.26 0.06 0 1 
403 1 0.27 0.06 0 1 
404 1 0.28 0.06 0 1 
405 1 0.29 0.06 0 1 
406 1 0.3 0.06 0 1 
407 1 0.31 0.06 0 1 
408 1 0.32 0.06 0 1 
409 1 0.33 0.06 0 1 
410 1 0.34 0.06 0 1 
411 1 0.35 0.06 0 1 
412 1 0.36 0.06 0 1 
413 1 0.37 0.06 0 1.00001 
414 1 0.38 0.06 0 1.00005 
415 1 0.39 0.06 0 1.00017 
416 1 0.4 0.06 0 1.00055 
417 1 0.41 0.06 0 1.00164 
418 1 0.42 0.06 0 1.00449 
419 1 0.43 0.06 0 1.01132 
420 1 0.44 0.06 0 1.02614 
421 1 0.45 0.06 0 1.05516 
422 1 0.46 0.06 0 1.10604 
423 1 0.47 0.06 0 1.18546 
424 1 0.48 0.06 0 1.29518 
425 1 0.49 0.06 0 1.4287 
426 1 0.25 0.07 0 1 
427 1 0.26 0.07 0 1 
428 1 0.27 0.07 0 1 
429 1 0.28 0.07 0 1 
430 1 0.29 0.07 0 1 
431 1 0.3 0.07 0 1 
432 1 0.31 0.07 0 1 
433 1 0.32 0.07 0 1 
434 1 0.33 0.07 0 1 
435 1 0.34 0.07 0 1 
436 1 0.35 0.07 0 1 
437 1 0.36 0.07 0 1 
438 1 0.37 0.07 0 1.00001 
439 1 0.38 0.07 0 1.00005 
440 1 0.39 0.07 0 1.00017 
441 1 0.4 0.07 0 1.00055 
442 1 0.41 0.07 0 1.00164 
443 1 0.42 0.07 0 1.00449 
444 1 0.43 0.07 0 1.01132 
445 1 0.44 0.07 0 1.02614 
446 1 0.45 0.07 0 1.05516 
447 1 0.46 0.07 0 1.10604 
448 1 0.47 0.07 0 1.18546 
449 1 0.48 0.07 0 1.29518 
450 1 0.49 0.07 0 1.4287 
451 1 0.25 0.08 0 1 
452 1 0.26 0.08 0 1 
453 1 0.27 0.08 0 1 
454 1 0.28 0.08 0 1 
455 1 0.29 0.08 0 1 
456 1 0.3 0.08 0 1 
457 1 0.31 0.08 0 1 
458 1 0.32 0.08 0 1 
459 1 0.33 0.08 0 1 
460 1 0.34 0.08 0 1 
461 1 0.35 0.08 0 1 
462 1 0.36 0.08 0 1 
463 1 0.37 0.08 0 1.00001 
464 1 0.38 0.08 0 1.00005 
465 1 0.39 0.08 0 1.00017 
466 1 0.4 0.08 0 1.00055 
467 1 0.41 0.08 0 1.00164 
468 1 0.42 0.08 0 1.00449 
469 1 0.43 0.08 0 1.01132 
470 1 0.44 0.08 0 1.02614 
471 1 0.45 0.08 0 1.05516 
472 1 0.46 0.08 0 1.10604 
473 1 0.47 0.08 0 1.18546 
474 1 0.48 0.08 0 1.29518 
475 1 0.49 0.08 0 1.4287 
476 1 0.25 0.09 0 1 
477 1 0.26 0.09 0 1 
478 1 0.27 0.09 0 1 
479 1 0.28 0.09 0 1 
480 1 0.29 0.09 0 1 
481 1 0.3 0.09 0 1 
482 1 0.31 0.09 0 1 
483 1 0.32 0.09 0 1 
484 1 0.33 0.09 0 1 
485 1 0.34 0.09 0 1 
486 1 0.35 0.09 0 1 
487 1 0.36 0.09 0 1 
488 1 0.37 0.09 0 1.00001 
489 1 0.38 0.09 0 1.00005 
490 1 0.39 0.09 0 1.00017 
491 1 0.4 0.09 0 1.00055 
492 1 0.41 0.09 0 1.00164 
493 1 0.42 0.09 0 1.00449 
494 1 0.43 0.09 0 1.01132 
495 1 0.44 0.09 0 1.02614 
496 1 0.45 0.09 0 1.05516 
497 1 0.46 0.09 0 1.10604 
498 1 0.47 0.09 0 1.18546 
499 1 0.48 0.09 0 1.29518 
500 1 0.49 0.09 0 1.4287 
501 1 0.5 0 0 1.5713 
502 1 0.51 0 0 1.70482 
526 1 0.5 0.01 0 1.5713 
527 1 0.51 0.01 0 1.70482 
503 1 0.52 0 0 1.81454 
528 1 0.52 0.01 0 1.81454 
504 1 0.53 0 0 1.89396 
529 1 0.53 0.01 0 1.89396 
505 1 0.54 0 0 1.94484 
530 1 0.54 0.01 0 1.94484 
506 1 0.55 0 0 1.97386 
531 1 0.55 0.01 0 1.97386 
507 1 0.56 0 0 1.98868 
532 1 0.56 0.01 0 1.98868 
508 1 0.57 0 0 1.99551 
533 1 0.57 0.01 0 1.99551 
509 1 0.58 0 0 1.99836 
510 1 0.59 0 0 1.99945 
534 1 0.58 0.01 0 1.99836 
535 1 0.59 0.01 0 1.99945 
511 1 0.6 0 0 1.99983 
536 1 0.6 0.01 0 1.99983 
512 1 0.61 0 0 1.99995 
537 1 0.61 0.01 0 1.99995 
513 1 0.62 0 0 1.99999 
538 1 0.62 0.01 0 1.99999 
514 1 0.63 0 0 2 
539 1 0.63 0.01 0 2 
515 1 0.64 0 0 2 
540 1 0.64 0.01 0 2 
516 1 0.65 0 0 2 
541 1 0.65 0.01 0 2 
517 1 0.66 0 0 2 
518 1 0.67 0 0 2 
542 1 0.66 0.01 0 2 
543 1 0.67 0.01 0 2 
519 1 0.68 0 0 2 
544 1 0.68 0.01 0 2 
520 1 0.69 0 0 2 
545 1 0.69 0.01 0 2 
521 1 0.7 0 0 2 
546 1 0.7 0.01 0 2 
522 1 0.71 0 0 2 
547 1 0.71 0.01 0 2 
523 1 0.72 0 0 2 
548 1 0.72 0.01 0 2 
524 1 0.73 0 0 2 
549 1 0.73 0.01 0 2 
525 1 0.74 0 0 2 
550 1 0.74 0.01 0 2 
551 1 0.5 0.02 0 1.5713 
552 1 0.51 0.02 0 1.70482 
553 1 0.52 0.02 0 1.81454 
554 1 0.53 0.02 0 1.89396 
555 1 0.54 0.02 0 1.94484 
556 1 0.55 0.02 0 1.97386 
557 1 0.56 0.02 0 1.98868 
558 1 0.57 0.02 0 1.99551 
559 1 0.58 0.02 0 1.99836 
560 1 0.59 0.02 0 1.99945 
561 1 0.6 0.02 0 1.99983 
562 1 0.61 0.02 0 1.99995 
563 1 0.62 0.02 0 1.99999 
564 1 0.63 0.02 0 2 
565 1 0.64 0.02 0 2 
566 1 0.65 0.02 0 2 
567 1 0.66 0.02 0 2 
568 1 0.67 0.02 0 2 
569 1 0.68 0.02 0 2 
570 1 0.69 0.02 0 2 
571 1 0.7 0.02 0 2 
572 1 0.71 0.02 0 2 
573 1 0.72 0.02 0 2 
574 1 0.73 0.02 0 2 
575 1 0.74 0.02 0 2 
576 1 0.5 0.03 0 1.5713 
577 1 0.51 0.03 0 1.70482 
578 1 0.52 0.03 0 1.81454 
579 1 0.53 0.03 0 1.89396 
580 1 0.54 0.03 0 1.94484 
581 1 0.55 0.03 0 1.97386 
582 1 0.56 0.03 0 1.98868 
583 1 0.57 0.03 0 1.99551 
584 1 0.58 0.03 0 1.99836 
585 1 0.59 0.03 0 1.99945 
586 1 0.6 0.03 0 1.99983 
587 1 0.61 0.03 0 1.99995 
588 1 0.62 0.03 0 1.99999 
589 1 0.63 0.03 0 2 
590 1 0.64 0.03 0 2 
591 1 0.65 0.03 0 2 
592 1 0.66 0.03 0 2 
593 1 0.67 0.03 0 2 
594 1 0.68 0.03 0 2 
595 1 0.69 0.03 0 2 
596 1 0.7 0.03 0 2 
597 1 0.71 0.03 0 2 
598 1 0.72 0.03 0 2 
599 1 0.73 0.03 0 2 
600 1 0.74 0.03 0 2 
601 1 0.5 0.04 0 1.5713 
602 1 0.51 0.04 0 1.70482 
603 1 0.52 0.04 0 1.81454 
604 1 0.53 0.04 0 1.89396 
605 1 0.54 0.04 0 1.94484 
606 1 0.55 0.04 0 1.97386 
607 1 0.56 0.04 0 1.98868 
608 1 0.57 0.04 0 1.99551 
609 1 0.58 0.04 0 1.99836 
610 1 0.59 0.04 0 1.99945 
611 1 0.6 0.04 0 1.99983 
612 1 0.61 0.04 0 1.99995 
613 1 0.62 0.04 0 1.99999 
614 1 0.63 0.04 0 2 
615 1 0.64 0.04 0 2 
616 1 0.65 0.04 0 2 
617 1 0.66 0.04 0 2 
618 1 0.67 0.04 0 2 
619 1 0.68 0.04 0 2 
620 1 0.69 0.04 0 2 
621 1 0.7 0.04 0 2 
622 1 0.71 0.04 0 2 
623 1 0.72 0.04 0 2 
624 1 0.73 0.04 0 2 
625 1 0.74 0.04 0 2 
626 1 0.5 0.05 0 1.5713 
627 1 0.51 0.05 0 1.70482 
628 1 0.52 0.05 0 1.81454 
629 1 0.53 0.05 0 1.89396 
630 1 0.54 0.05 0 1.94484 
631 1 0.55 0.05 0 1.97386 
632 1 0.56 0.05 0 1.98868 
633 1 0.57 0.05 0 1.99551 
634 1 0.58 0.05 0 1.99836 
635 1 0.59 0.05 0 1.99945 
636 1 0.6 0.05 0 1.99983 
637 1 0.61 0.05 0 1.99995 
638 1 0.62 0.05 0 1.99999 
639 1 0.63 0.05 0 2 
640 1 0.64 0.05 0 2 
641 1 0.65 0.05 0 2 
642 1 0.66 0.05 0 2 
643 1 0.67 0.05 0 2 
644 1 0.68 0.05 0 2 
645 1 0.69 0.05 0 2 
646 1 0.7 0.05 0 2 
647 1 0.71 0.05 0 2 
648 1 0.72 0.05 0 2 
649 1 0.73 0.05 0 2 
650 1 0.74 0.05 0 2 
651 1 0.5 0.06 0 1.5713 
652 1 0.51 0.06 0 1.70482 
653 1 0.52 0.06 0 1.81454 
654 1 0.53 0.06 0 1.89396 
655 1 0.54 0.06 0 1.94484 
656 1 0.55 0.06 0 1.97386 
657 1 0.56 0.06 0 1.98868 
658 1 0.57 0.06 0 1.99551 
659 1 0.58 0.06 0 1.99836 
660 1 0.59 0.06 0 1.99945 
661 1 0.6 0.06 0 1.99983 
662 1 0.61 0.06 0 1.99995 
663 1 0.62 0.06 0 1.99999 
664 1 0.63 0.06 0 2 
665 1 0.64 0.06 0 2 
666 1 0.65 0.06 0 2 
667 1 0.66 0.06 0 2 
668 1 0.67 0.06 0 2 
669 1 0.68 0.06 0 2 
670 1 0.69 0.06 0 2 
671 1 0.7 0.06 0 2 
672 1 0.71 0.06 0 2 
673 1 0.72 0.06 0 2 
674 1 0.73 0.06 0 2 
675 1 0.74 0.06 0 2 
676 1 0.5 0.07 0 1.5713 
677 1 0.51 0.07 0 1.70482 
678 1 0.52 0.07 0 1.81454 
679 1 0.53 0.07 0 1.89396 
680 1 0.54 0.07 0 1.94484 
681 1 0.55 0.07 0 1.97386 
682 1 0.56 0.07 0 1.98868 
683 1 0.57 0.07 0 1.99551 
684 1 0.58 0.07 0 1.99836 
685 1 0.59 0.07 0 1.99945 
686 1 0.6 0.07 0 1.99983 
687 1 0.61 0.07 0 1.99995 
688 1 0.62 0.07 0 1.99999 
689 1 0.63 0.07 0 2 
690 1 0.64 0.07 0 2 
691 1 0.65 0.07 0 2 
692 1 0.66 0.07 0 2 
693 1 0.67 0.07 0 2 
694 1 0.68 0.07 0 2 
695 1 0.69 0.07 0 2 
696 1 0.7 0.07 0 2 
697 1 0.71 0.07 0 2 
698 1 0.72 0.07 0 2 
699 1 0.73 0.07 0 2 
700 1 0.74 0.07 0 2 
701 1 0.5 0.08 0 1.5713 
702 1 0.51 0.08 0 1.70482 
703 1 0.52 0.08 0 1.81454 
704 1 0.53 0.08 0 1.89396 
705 1 0.54 0.08 0 1.94484 
706 1 0.55 0.08 0 1.97386 
707 1 0.56 0.08 0 1.98868 
708 1 0.57 0.08 0 1.99551 
709 1 0.58 0.08 0 1.99836 
710 1 0.59 0.08 0 1.99945 
711 1 0.6 0.08 0 1.99983 
712 1 0.61 0.08 0 1.99995 
713 1 0.62 0.08 0 1.99999 
714 1 0.63 0.08 0 2 
715 1 0.64 0.08 0 2 
716 1 0.65 0.08 0 2 
717 1 0.66 0.08 0 2 
718 1 0.67 0.08 0 2 
719 1 0.68 0.08 0 2 
720 1 0.69 0.08 0 2 
721 1 0.7 0.08 0 2 
722 1 0.71 0.08 0 2 
723 1 0.72 0.08 0 2 
724 1 0.73 0.08 0 2 
725 1 0.74 0.08 0 2 
726 1 0.5 0.09 0 1.5713 
727 1 0.51 0.09 0 1.70482 
728 1 0.52 0.09 0 1.81454 
729 1 0.53 0.09 0 1.89396 
730 1 0.54 0.09 0 1.94484 
731 1 0.55 0.09 0 1.97386 
732 1 0.56 0.09 0 1.98868 
733 1 0.57 0.09 0 1.99551 
734 1 0.58 0.09 0 1.99836 
735 1 0.59 0.09 0 1.99945 
736 1 0.6 0.09 0 1.99983 
737 1 0.61 0.09 0 1.99995 
738 1 0.62 0.09 0 1.99999 
739 1 0.63 0.09 0 2 
740 1 0.64 0.09 0 2 
741 1 0.65 0.09 0 2 
742 1 0.66 0.09 0 2 
743 1 0.67 0.09 0 2 
744 1 0.68 0.09 0 2 
745 1 0.69 0.09 0 2 
746 1 0.7 0.09 0 2 
747 1 0.71 0.09 0 2 
748 1 0.72 0.09 0 2 
749 1 0.73 0.09 0 2 
750 1 0.74 0.09 0 2 
751 1 0.75 0 0 2 
752 1 0.76 0 0 2 
776 1 0.75 0.01 0 2 
777 1 0.76 0.01 0 2 
753 1 0.77 0 0 2 
778 1 0.77 0.01 0 2 
754 1 0.78 0 0 2 
779 1 0.78 0.01 0 2 
755 1 0.79 0 0 2 
780 1 0.79 0.01 0 2 
756 1 0.8 0 0 2 
781 1 0.8 0.01 0 2 
757 1 0.81 0 0 2 
782 1 0.81 0.01 0 2 
758 1 0.82 0 0 2 
783 1 0.82 0.01 0 2 
759 1 0.83 0 0 2 
760 1 0.84 0 0 2 
784 1 0.83 0.01 0 2 
785 1 0.84 0.01 0 2 
761 1 0.85 0 0 2 
786 1 0.85 0.01 0 2 
762 1 0.86 0 0 2 
787 1 0.86 0.01 0 2 
763 1 0.87 0 0 2 
788 1 0.87 0.01 0 2 
764 1 0.88 0 0 2 
789 1 0.88 0.01 0 2 
765 1 0.89 0 0 2 
790 1 0.89 0.01 0 2 
766 1 0.9 0 0 2 
791 1 0.9 0.01 0 2 
767 1 0.91 0 0 2 
768 1 0.92 0 0 2 
792 1 0.91 0.01 0 2 
793 1 0.92 0.01 0 2 
769 1 0.93 0 0 2 
794 1 0.93 0.01 0 2 
770 1 0.94 0 0 2 
795 1 0.94 0.01 0 2 
771 1 0.95 0 0 2 
796 1 0.95 0.01 0 2 
772 1 0.96 0 0 2 
797 1 0.96 0.01 0 2 
773 1 0.97 0 0 2 
798 1 0.97 0.01 0 2 
774 1 0.98 0 0 2 
799 1 0.98 0.01 0 2 
775 1 0.99 0 0 2 
800 1 0.99 0.01 0 2 
801 1 0.75 0.02 0 2 
802 1 0.76 0.02 0 2 
803 1 0.77 0.02 0 2 
804 1 0.78 0.02 0 2 
805 1 0.79 0.02 0 2 
806 1 0.8 0.02 0 2 
807 1 0.81 0.02 0 2 
808 1 0.82 0.02 0 2 
809 1 0.83 0.02 0 2 
810 1 0.84 0.02 0 2 
811 1 0.85 0.02 0 2 
812 1 0.86 0.02 0 2 
813 1 0.87 0.02 0 2 
814 1 0.88 0.02 0 2 
815 1 0.89 0.02 0 2 
816 1 0.9 0.02 0 2 
817 1 0.91 0.02 0 2 
818 1 0.92 0.02 0 2 
819 1 0.93 0.02 0 2 
820 1 0.94 0.02 0 2 
821 1 0.95 0.02 0 2 
822 1 0.96 0.02 0 2 
823 1 0.97 0.02 0 2 
824 1 0.98 0.02 0 2 
825 1 0.99 0.02 0 2 
826 1 0.75 0.03 0 2 
827 1 0.76 0.03 0 2 
828 1 0.77 0.03 0 2 
829 1 0.78 0.03 0 2 
830 1 0.79 0.03 0 2 
831 1 0.8 0.03 0 2 
832 1 0.81 0.03 0 2 
833 1 0.82 0.03 0 2 
834 1 0.83 0.03 0 2 
835 1 0.84 0.03 0 2 
836 1 0.85 0.03 0 2 
837 1 0.86 0.03 0 2 
838 1 0.87 0.03 0 2 
839 1 0.88 0.03 0 2 
840 1 0.89 0.03 0 2 
841 1 0.9 0.03 0 2 
842 1 0.91 0.03 0 2 
843 1 0.92 0.03 0 2 
844 1 0.93 0.03 0 2 
845 1 0.94 0.03 0 2 
846 1 0.95 0.03 0 2 
847 1 0.96 0.03 0 2 
848 1 0.97 0.03 0 2 
849 1 0.98 0.03 0 2 
850 1 0.99 0.03 0 2 
851 1 0.75 0.04 0 2 
852 1 0.76 0.04 0 2 
853 1 0.77 0.04 0 2 
854 1 0.78 0.04 0 2 
855 1 0.79 0.04 0 2 
856 1 0.8 0.04 0 2 
857 1 0.81 0.04 0 2 
858 1 0.82 0.04 0 2 
859 1 0.83 0.04 0 2 
860 1 0.84 0.04 0 2 
861 1 0.85 0.04 0 2 
862 1 0.86 0.04 0 2 
863 1 0.87 0.04 0 2 
864 1 0.88 0.04 0 2 
865 1 0.89 0.04 0 2 
866 1 0.9 0.04 0 2 
867 1 0.91 0.04 0 2 
868 1 0.92 0.04 0 2 
869 1 0.93 0.04 0 2 
870 1 0.94 0.04 0 2 
871 1 0.95 0.04 0 2 
872 1 0.96 0.04 0 2 
873 1 0.97 0.04 0 2 
874 1 0.98 0.04 0 2 
875 1 0.99 0.04 0 2 
876 1 0.75 0.05 0 2 
877 1 0.76 0.05 0 2 
878 1 0.77 0.05 0 2 
879 1 0.78 0.05 0 2 
880 1 0.79 0.05 0 2 
881 1 0.8 0.05 0 2 
882 1 0.81 0.05 0 2 
883 1 0.82 0.05 0 2 
884 1 0.83 0.05 0 2 
885 1 0.84 0.05 0 2 
886 1 0.85 0.05 0 2 
887 1 0.86 0.05 0 2 
888 1 0.87 0.05 0 2 
889 1 0.88 0.05 0 2 
890 1 0.89 0.05 0 2 
891 1 0.9 0.05 0 2 
892 1 0.91 0.05 0 2 
893 1 0.92 0.05 0 2 
894 1 0.93 0.05 0 2 
895 1 0.94 0.05 0 2 
896 1 0.95 0.05 0 2 
897 1 0.96 0.05 0 2 
898 1 0.97 0.05 0 2 
899 1 0.98 0.05 0 2 
900 1 0.99 0.05 0 2 
901 1 0.75 0.06 0 2 
902 1 0.76 0.06 0 2 
903 1 0.77 0.06 0 2 
904 1 0.78 0.06 0 2 
905 1 0.79 0.06 0 2 
906 1 0.8 0.06 0 2 
907 1 0.81 0.06 0 2 
908 1 0.82 0.06 0 2 
909 1 0.83 0.06 0 2 
910 1 0.84 0.06 0 2 
911 1 0.85 0.06 0 2 
912 1 0.86 0.06 0 2 
913 1 0.87 0.06 0 2 
914 1 0.88 0.06 0 2 
915 1 0.89 0.06 0 2 
916 1 0.9 0.06 0 2 
917 1 0.91 0.06 0 2 
918 1 0.92 0.06 0 2 
919 1 0.93 0.06 0 2 
920 1 0.94 0.06 0 2 
921 1 0.95 0.06 0 2 
922 1 0.96 0.06 0 2 
923 1 0.97 0.06 0 2 
924 1 0.98 0.06 0 2 
925 1 0.99 0.06 0 2 
926 1 0.75 0.07 0 2 
927 1 0.76 0.07 0 2 
928 1 0.77 0.07 0 2 
929 1 0.78 0.07 0 2 
930 1 0.79 0.07 0 2 
931 1 0.8 0.07 0 2 
932 1 0.81 0.07 0 2 
933 1 0.82 0.07 0 2 
934 1 0.83 0.07 0 2 
935 1 0.84 0.07 0 2 
936 1 0.85 0.07 0 2 
937 1 0.86 0.07 0 2 
938 1 0.87 0.07 0 2 
939 1 0.88 0.07 0 2 
940 1 0.89 0.07 0 2 
941 1 0.9 0.07 0 2 
942 1 0.91 0.07 0 2 
943 1 0.92 0.07 0 2 
944 1 0.93 0.07 0 2 
945 1 0.94 0.07 0 2 
946 1 0.95 0.07 0 2 
947 1 0.96 0.07 0 2 
948 1 0.97 0.07 0 2 
949 1 0.98 0.07 0 2 
950 1 0.99 0.07 0 2 
951 1 0.75 0.08 0 2 
952 1 0.76 0.08 0 2 
953 1 0.77 0.08 0 2 
954 1 0.78 0.08 0 2 
955 1 0.79 0.08 0 2 
956 1 0.8 0.08 0 2 
957 1 0.81 0.08 0 2 
958 1 0.82 0.08 0 2 
959 1 0.83 0.08 0 2 
960 1 0.84 0.08 0 2 
961 1 0.85 0.08 0 2 
962 1 0.86 0.08 0 2 
963 1 0.87 0.08 0 2 
964 1 0.88 0.08 0 2 
965 1 0.89 0.08 0 2 
966 1 0.9 0.08 0 2 
967 1 0.91 0.08 0 2 
968 1 0.92 0.08 0 2 
969 1 0.93 0.08 0 2 
970 1 0.94 0.08 0 2 
971 1 0.95 0.08 0 2 
972 1 0.96 0.08 0 2 
973 1 0.97 0.08 0 2 
974 1 0.98 0.08 0 2 
975 1 0.99 0.08 0 2 
976 1 0.75 0.09 0 2 
977 1 0.76 0.09 0 2 
978 1 0.77 0.09 0 2 
979 1 0.78 0.09 0 2 
980 1 0.79 0.09 0 2 
981 1 0.8 0.09 0 2 
982 1 0.81 0.09 0 2 
983 1 0.82 0.09 0 2 
984 1 0.83 0.09 0 2 
985 1 0.84 0.09 0 2 
986 1 0.85 0.09 0 2 
987 1 0.86 0.09 0 2 
988 1 0.87 0.09 0 2 
989 1 0.88 0.09 0 2 
990 1 0.89 0.09 0 2 
991 1 0.9 0.09 0 2 
992 1 0.91 0.09 0 2 
993 1 0.92 0.09 0 2 
994 1 0.93 0.09 0 2 
995 1 0.94 0.09 0 2 
996 1 0.95 0.09 0 2 
997 1 0.96 0.09 0 2 
998 1 0.97 0.09 0 2 
999 1 0.98 0.09 0 2 
1000 1 0.99 0.09 0 2 
