# vtk DataFile Version 4.1
Generated by LAMMPS
ASCII
DATASET POLYDATA
POINTS 1324 float
0.045845 0.00216074 0 0.0467538 0.0332517 0 0.0946777 0.00200194 0 
0.101128 0.0380726 0 0.145406 1.3183e-08 0 0.150408 0.0438584 0 
0.177039 3.80592e-08 0 0.19493 0.0481391 0 0.200001 4.74924e-08 0 
0.199999 5.40581e-08 0 0.2 4.07936e-08 0 0.2 1.33743e-08 0 
0.2 4.88689e-08 0 0.256296 4.85176e-08 0 0.283134 2.04681e-07 0 
0.321634 2.90201e-07 0 0.352148 0.0577316 0 0.388833 0.0523466 0 
0.360793 1.06651e-07 0 0.400533 1.41023e-07 0 0.438147 0.0507088 0 
0.465031 0.0479654 0 0.440462 8.28149e-08 0 0.493334 0.0486863 0 
0.522646 0.0440141 0 0.48049 8.23314e-08 0 0.520535 2.64612e-08 0 
0.554615 0.0423852 0 0.5885 0.0403726 0 0.560563 9.49989e-09 0 
0.624453 0.0385342 0 0.600585 1.96051e-08 0 0.640611 6.27134e-08 0 
0.662324 0.0371696 0 0.701688 0.0357655 0 0.680647 5.09097e-09 0 
0.744189 0.0346106 0 0.720715 5.80494e-08 0 0.760719 2.65849e-08 0 
0.792608 0.0353456 0 0.800736 1.29992e-07 0 0.841456 0.0373784 0 
0.884341 0.0371667 0 0.840705 3.23164e-08 0 0.880744 1.6065e-08 0 
0.93234 0.0383714 0 0.92098 8.13673e-08 0 0.97362 0.0391037 0 
0.961079 9.02485e-08 0 1.01533 0.0393535 0 1.05519 0.0405697 0 
1.00144 7.03184e-08 0 1.04157 1.28934e-07 0 1.0942 0.0409512 0 
1.08206 1.28354e-09 0 1.1325 0.0418758 0 1.16934 0.0431093 0 
1.12215 1.47957e-08 0 1.16299 6.50486e-09 0 1.20508 0.0435477 0 
1.20323 3.01174e-08 0 1.23953 0.0439713 0 1.27398 0.0435447 0 
1.24689 9.44485e-09 0 1.289 5.74279e-09 0 1.30876 0.0409939 0 
1.34549 0.0404825 0 1.33388 1.68924e-09 0 1.38353 0.0381043 0 
1.37504 2.03359e-09 0 1.42339 0.0383243 0 1.42031 3.06938e-08 0 
1.46348 0.0372407 0 1.46065 1.11021e-08 0 1.50504 0.0375545 0 
1.50713 2.32393e-09 0 1.54656 0.0366639 0 1.54695 5.66994e-09 0 
1.589 0.0364961 0 1.59484 1.76022e-08 0 1.63433 0.0365478 0 
1.63498 2.14526e-09 0 1.67699 0.0357358 0 1.68431 2.44513e-08 0 
1.72411 0.0362457 0 1.72643 1.08614e-08 0 1.76523 0.0320679 0 
1.77862 1.03111e-08 0 1.82394 0.0336142 0 1.81945 9.6447e-09 0 
1.86556 0.0174503 0 1.8512 0.0563675 0 1.88783 0.048844 0 
1.90435 8.02011e-09 0 1.92742 0.031816 0 1.94225 5.15835e-07 0 
1.95511 0.0551603 0 1.97869 0.0177888 0 1.9931 0.0482768 0 
0.0647357 0.104077 0 0.0572427 0.066825 0 0.00987465 0.0837289 0 
0.107513 0.0752843 0 0.110468 0.113734 0 0.153302 0.0821385 0 
0.198798 0.0821101 0 0.250576 0.06799 0 0.252032 0.102631 0 
0.299395 0.115742 0 0.291651 0.0617817 0 0.326788 0.0710422 0 
0.392055 0.098281 0 0.416491 0.0649066 0 0.460581 0.102433 0 
0.49154 0.107017 0 0.519143 0.0958202 0 0.550737 0.0936234 0 
0.582522 0.0888002 0 0.616252 0.0851792 0 0.651368 0.0819872 0 
0.688084 0.0789009 0 0.726195 0.0754561 0 0.735361 0.114424 0 
0.765657 0.0717003 0 0.774575 0.109478 0 0.818447 0.105749 0 
0.805936 0.0694338 0 0.850615 0.0705006 0 0.868018 0.104554 0 
0.908442 0.103707 0 0.901003 0.0692028 0 0.946854 0.0726491 0 
0.960033 0.105179 0 1.00364 0.110659 0 0.998252 0.076347 0 
1.05245 0.115207 0 1.03994 0.0799224 0 1.07954 0.0808395 0 
1.11664 0.0821655 0 1.15277 0.0849687 0 1.18767 0.0868587 0 
1.22162 0.0891224 0 1.25463 0.0896323 0 1.28729 0.0880312 0 
1.31988 0.0862852 0 1.35347 0.082702 0 1.38794 0.0794545 0 
1.42489 0.0785112 0 1.46203 0.0767322 0 1.50158 0.0764342 0 
1.54514 0.117008 0 1.53985 0.0745934 0 1.58369 0.115769 0 
1.58125 0.0740442 0 1.62268 0.113337 0 1.61973 0.0714447 0 
1.6638 0.112279 0 1.66258 0.0708848 0 1.7047 0.108246 0 
1.70191 0.0667586 0 1.74509 0.105997 0 1.75406 0.0674308 0 
1.78914 0.100301 0 1.79305 0.0591781 0 1.82973 0.0932583 0 
1.8773 0.0893738 0 1.91842 0.0845787 0 1.97066 0.0869667 0 
0.0231148 0.12797 0 0.0283455 0.167284 0 0.0689413 0.143114 0 
0.112725 0.152747 0 0.156694 0.160433 0 0.154961 0.120941 0 
0.199085 0.120991 0 0.199203 0.16044 0 0.246546 0.137031 0 
0.242617 0.172041 0 0.293609 0.149394 0 0.341335 0.119924 0 
0.338696 0.161975 0 0.377085 0.133857 0 0.381653 0.174665 0 
0.414462 0.138284 0 0.442718 0.125032 0 0.458574 0.170392 0 
0.490602 0.159144 0 0.520582 0.146288 0 0.554782 0.142346 0 
0.588224 0.134477 0 0.614415 0.174391 0 0.623462 0.129488 0 
0.651857 0.167609 0 0.659503 0.124155 0 0.691415 0.161201 0 
0.696879 0.119258 0 0.731117 0.155231 0 0.774158 0.14893 0 
0.814018 0.143078 0 0.854759 0.137929 0 0.885443 0.171213 0 
0.90811 0.139195 0 0.936573 0.171464 0 0.953179 0.138739 0 
0.980715 0.171885 0 1.00701 0.145986 0 1.05181 0.150045 0 
1.09344 0.157683 0 1.09923 0.122515 0 1.13535 0.166325 0 
1.13931 0.12868 0 1.17371 0.175409 0 1.17631 0.133518 0 
1.21097 0.137852 0 1.24413 0.140772 0 1.27606 0.140224 0 
1.30772 0.141086 0 1.33839 0.134437 0 1.37057 0.131668 0 
1.40282 0.173708 0 1.40281 0.126815 0 1.43599 0.170331 0 
1.43669 0.123888 0 1.46971 0.166971 0 1.47161 0.121401 0 
1.50399 0.16269 0 1.50782 0.119049 0 1.53936 0.160279 0 
1.57524 0.157181 0 1.61191 0.154098 0 1.64945 0.151151 0 
1.68745 0.146545 0 1.72735 0.143543 0 1.76749 0.137898 0 
1.81102 0.132567 0 1.79342 0.17504 0 1.83219 0.169472 0 
1.85073 0.125798 0 1.87085 0.162968 0 1.89545 0.122928 0 
1.91042 0.159581 0 1.9365 0.11848 0 1.94947 0.156149 0 
1.98307 0.122016 0 1.98827 0.160489 0 0.0345527 0.213627 0 
0.0718273 0.182513 0 0.0752011 0.222638 0 0.116055 0.234082 0 
0.114439 0.192072 0 0.157221 0.19995 0 0.199237 0.20022 0 
0.241477 0.20858 0 0.288866 0.184233 0 0.28279 0.219057 0 
0.332507 0.195957 0 0.329851 0.230616 0 0.380585 0.20938 0 
0.42368 0.182437 0 0.423493 0.217484 0 0.46819 0.209911 0 
0.505303 0.199757 0 0.541181 0.189864 0 0.552512 0.227767 0 
0.576921 0.180979 0 0.592423 0.218461 0 0.630949 0.211078 0 
0.672236 0.202789 0 0.711743 0.19592 0 0.731383 0.22903 0 
0.754988 0.187366 0 0.77106 0.22191 0 0.79679 0.181723 0 
0.8186 0.212561 0 0.845354 0.176128 0 0.861043 0.209461 0 
0.908948 0.20283 0 0.955166 0.205209 0 1.00573 0.206982 0 
1.03537 0.181746 0 1.05229 0.21855 0 1.08228 0.1931 0 
1.10167 0.232613 0 1.12597 0.20321 0 1.16507 0.215898 0 
1.20235 0.226525 0 1.20961 0.183016 0 1.24343 0.187113 0 
1.27578 0.191382 0 1.30803 0.190402 0 1.33293 0.233325 0 
1.33894 0.183171 0 1.36611 0.23414 0 1.37144 0.181673 0 
1.39754 0.223344 0 1.43112 0.219658 0 1.46513 0.21535 0 
1.4994 0.209556 0 1.53477 0.207014 0 1.57034 0.202664 0 
1.60665 0.199721 0 1.64331 0.195781 0 1.68038 0.191555 0 
1.6995 0.231125 0 1.71787 0.187392 0 1.73666 0.226641 0 
1.75565 0.181996 0 1.77356 0.219578 0 1.81092 0.214896 0 
1.84771 0.207051 0 1.88519 0.203973 0 1.92215 0.198038 0 
1.95926 0.200816 0 1.9963 0.201225 0 0.0387656 0.254824 0 
0.0771043 0.267295 0 0.116919 0.274173 0 0.157602 0.239645 0 
0.157873 0.279516 0 0.199282 0.240092 0 0.199302 0.280051 0 
0.238927 0.245921 0 0.238902 0.284156 0 0.282046 0.255081 0 
0.279663 0.29153 0 0.322587 0.264669 0 0.371183 0.241665 0 
0.374841 0.275147 0 0.415598 0.282321 0 0.42701 0.251116 0 
0.468349 0.246352 0 0.474374 0.280626 0 0.513921 0.237033 0 
0.5141 0.273213 0 0.562627 0.2638 0 0.60193 0.255413 0 
0.61061 0.290582 0 0.646646 0.246237 0 0.650088 0.282525 0 
0.685782 0.2387 0 0.697538 0.273085 0 0.736574 0.264662 0 
0.784899 0.254929 0 0.824474 0.247242 0 0.826212 0.283276 0 
0.780091 0.291775 0 0.877227 0.240943 0 0.867076 0.27479 0 
0.917887 0.236608 0 0.920361 0.270804 0 0.964144 0.269314 0 
0.971271 0.236568 0 1.01347 0.242061 0 1.01669 0.275856 0 
1.05845 0.286909 0 1.0655 0.254242 0 1.10669 0.273481 0 
1.14106 0.248199 0 1.14883 0.291518 0 1.17976 0.262137 0 
1.23593 0.237128 0 1.21285 0.278675 0 1.24641 0.284595 0 
1.26875 0.239427 0 1.30155 0.241955 0 1.2787 0.291521 0 
1.31117 0.284762 0 1.34466 0.285064 0 1.37742 0.274128 0 
1.41188 0.269367 0 1.44672 0.263716 0 1.48169 0.256638 0 
1.51765 0.253429 0 1.52902 0.29378 0 1.5534 0.247949 0 
1.56669 0.290534 0 1.58979 0.244974 0 1.60405 0.285641 0 
1.62605 0.240029 0 1.6415 0.282247 0 1.66276 0.236126 0 
1.67849 0.276987 0 1.71565 0.273418 0 1.75195 0.266213 0 
1.78868 0.262806 0 1.82392 0.253661 0 1.86028 0.251684 0 
1.86769 0.290922 0 1.89519 0.243001 0 1.93104 0.245474 0 
1.93633 0.285065 0 1.9664 0.241012 0 2.00133 0.250028 0 
2.0051 0.290504 0 1.97041 0.29312 0 0.0407603 0.303645 0 
0.0423458 0.344077 0 0.00639453 0.344376 0 0.0786885 0.308102 0 
0.117642 0.31563 0 0.158081 0.319519 0 0.199334 0.320017 0 
0.23849 0.32283 0 0.280571 0.328566 0 0.325064 0.299874 0 
0.320589 0.335001 0 0.365379 0.307546 0 0.370825 0.341386 0 
0.41083 0.346149 0 0.422697 0.314818 0 0.462817 0.312884 0 
0.470858 0.345519 0 0.510128 0.340526 0 0.521347 0.307434 0 
0.560618 0.299605 0 0.566987 0.334341 0 0.606181 0.32672 0 
0.65505 0.318633 0 0.694516 0.310251 0 0.695527 0.347887 0 
0.735027 0.339516 0 0.740385 0.301272 0 0.777601 0.330284 0 
0.817411 0.321405 0 0.86083 0.312128 0 0.887225 0.344449 0 
0.902036 0.304293 0 0.929109 0.334365 0 0.952007 0.302829 0 
0.973868 0.336646 0 0.998339 0.306065 0 1.01612 0.345184 0 
1.04243 0.318341 0 1.08314 0.33454 0 1.10573 0.308824 0 
1.1397 0.333394 0 1.18082 0.312099 0 1.17206 0.355387 0 
1.21354 0.326415 0 1.24444 0.337478 0 1.27726 0.335589 0 
1.311 0.336711 0 1.34497 0.325932 0 1.38146 0.321349 0 
1.41707 0.311543 0 1.41849 0.353283 0 1.45418 0.304464 0 
1.45654 0.345762 0 1.49158 0.299492 0 1.49667 0.339722 0 
1.53544 0.33541 0 1.57447 0.330518 0 1.61303 0.327337 0 
1.65106 0.322316 0 1.68894 0.319499 0 1.72581 0.313036 0 
1.76281 0.310845 0 1.76871 0.350433 0 1.7981 0.301908 0 
1.80476 0.351507 0 1.83407 0.302141 0 1.83879 0.341558 0 
1.87347 0.345176 0 1.90265 0.29374 0 1.90603 0.333256 0 
1.93971 0.339982 0 1.97327 0.333 0 0.0429734 0.39398 0 
0.00781403 0.384517 0 0.0794331 0.353135 0 0.0800881 0.394177 0 
0.118187 0.356361 0 0.118565 0.398036 0 0.158236 0.359651 0 
0.158349 0.399875 0 0.199367 0.360002 0 0.199379 0.399993 0 
0.23873 0.361768 0 0.238334 0.400983 0 0.278463 0.36577 0 
0.279806 0.403475 0 0.323603 0.37077 0 0.318681 0.406378 0 
0.363054 0.374816 0 0.369046 0.409 0 0.407805 0.410933 0 
0.418987 0.378769 0 0.458362 0.377436 0 0.466704 0.410076 0 
0.505738 0.406677 0 0.5177 0.373796 0 0.556787 0.368408 0 
[...]
POINT_DATA 1324
FIELD FieldData 9
id 1 1324 int
48 98 49 99 50 100 1176 1179 1177 
1178 4 5 6 7 8 9 55 57 
10 11 59 60 12 61 62 13 14 
63 64 15 65 16 17 66 67 18 
68 19 20 69 21 70 71 22 23 
72 24 73 25 74 75 26 27 76 
28 77 78 29 30 79 31 80 81 
32 33 82 83 34 84 35 85 36 
86 37 87 38 88 39 89 40 90 
41 91 42 92 43 93 44 94 45 
95 144 145 46 96 47 146 97 147 
198 148 197 149 199 150 1182 1180 1183 
1184 1181 54 56 58 108 109 110 111 
112 113 114 115 116 165 117 166 167 
118 119 168 169 120 121 170 171 122 
172 123 124 125 126 127 128 129 130 
131 132 133 134 135 136 186 137 187 
138 188 139 189 140 190 141 191 142 
192 143 193 194 195 196 247 297 248 
249 250 200 1185 1188 1186 1189 1187 104 
154 105 155 106 107 157 158 159 160 
161 211 162 212 163 213 164 214 215 
216 217 267 218 268 219 269 220 221 
222 173 223 174 224 175 176 177 178 
179 180 181 231 182 232 183 233 184 
234 185 235 236 237 238 239 240 241 
242 291 292 243 293 244 294 245 295 
246 296 347 298 348 349 299 300 1191 
1192 1190 1193 204 254 205 156 206 207 
208 209 259 210 260 261 262 263 313 
264 314 265 315 266 316 317 318 319 
270 320 271 321 272 273 274 225 226 
227 228 278 229 279 230 280 281 282 
283 284 285 286 287 288 338 289 339 
290 340 341 342 343 344 345 346 397 
398 399 350 400 1194 1197 1195 1198 1196 
1199 304 255 305 306 256 257 307 258 
308 309 310 360 311 361 312 362 363 
364 365 415 414 366 416 367 417 418 
368 369 419 420 370 371 322 372 323 
275 324 325 276 277 326 327 328 329 
330 331 332 333 383 334 384 335 385 
336 386 337 387 388 389 390 391 392 
442 393 394 444 395 396 446 445 447 
497 496 448 449 450 1200 1201 1202 354 
404 355 405 406 356 357 407 408 358 
359 409 410 411 412 462 463 413 464 
465 466 517 467 518 468 519 469 520 
470 471 421 422 373 423 374 375 376 
377 378 379 380 430 381 431 382 432 
433 434 435 436 437 438 439 489 440 
490 441 491 492 443 493 494 495 547 
546 498 548 499 549 500 550 1203 1206 
1204 1207 1205 1208 454 504 455 505 506 
456 457 507 508 458 459 509 510 460 
461 511 512 513 514 515 566 565 516 
567 568 569 570 571 572 521 573 472 
522 523 473 474 424 425 426 427 428 
479 429 480 481 482 483 484 534 485 
535 486 536 487 537 488 538 539 540 
541 542 543 544 545 597 596 598 599 
600 1209 1210 1211 554 555 556 557 558 
559 560 561 612 562 563 614 564 616 
618 619 620 622 623 624 575 576 574 
577 524 525 475 526 476 477 528 478 
579 529 580 530 531 581 582 532 533 
583 584 585 586 587 588 589 590 591 
592 593 594 595 647 697 646 648 698 
649 699 650 700 1212 1215 1213 1216 1214 
1217 604 654 605 655 606 656 657 607 
608 658 659 609 610 660 611 661 662 
663 613 664 665 615 666 617 667 669 
671 621 625 675 1249 1252 1253 1254 1259 
1260 1261 1262 1268 1269 1270 1273 1279 1280 
1283 1284 1285 1290 1291 1292 1296 1297 1298 
1299 1303 1304 1305 1309 1310 1311 1316 1317 
1318 1320 1321 627 677 1250 1251 1255 1256 
1257 1258 1263 1264 1265 1266 1267 1271 1272 
1274 1275 1276 1277 1278 1281 1282 1286 1287 
1288 1289 1293 1294 1295 1300 1301 1302 1306 
1307 1308 1312 1313 1314 1315 1319 1322 1323 
1324 628 678 527 777 728 578 679 629 
630 680 631 681 682 632 633 683 684 
634 685 635 686 636 637 687 638 689 
639 640 641 691 642 643 693 644 645 
695 747 696 746 748 749 750 1218 1219 
1220 704 754 705 755 706 756 757 707 
708 758 759 709 710 760 711 712 713 
714 715 716 668 670 673 672 674 725 
726 727 774 775 825 776 826 827 778 
729 779 730 780 731 781 732 733 734 
735 736 737 688 738 739 690 740 741 
692 742 743 694 744 745 797 798 799 
849 800 850 1221 1224 1222 1225 1223 1226 
804 805 806 856 807 857 808 858 809 
810 761 811 762 812 763 813 764 765 
717 766 718 767 719 720 721 722 723 
724 771 772 773 823 824 874 875 876 
877 828 878 829 879 830 831 832 782 
783 833 784 834 835 785 836 786 787 
788 789 790 791 792 793 794 795 796 
847 897 848 898 899 900 1227 1228 1229 
1232 854 904 855 905 906 907 908 859 
909 910 860 861 911 862 863 814 864 
815 865 816 817 768 818 769 819 770 
820 821 871 822 872 873 923 924 925 
926 927 928 929 880 930 931 881 882 
883 884 885 886 887 837 888 838 889 
839 890 840 841 842 843 844 845 846 
947 948 949 950 1000 1230 1233 1231 1234 
1235 954 1004 955 1005 956 1006 957 1007 
1008 958 959 960 961 962 912 963 913 
914 915 916 866 867 917 918 868 869 
919 920 870 921 922 972 973 974 975 
976 977 978 979 980 981 982 932 983 
933 984 934 985 935 986 936 937 938 
939 940 891 941 942 892 943 893 894 
944 945 895 896 946 997 998 1048 999 
1049 1050 1236 1237 1238 1241 1054 1055 1106 
1056 1057 1058 1059 1009 1060 1010 1011 1012 
1013 1014 964 1015 965 1016 966 1017 967 
1018 968 1019 969 1020 970 1021 971 1022 
1023 1024 1025 1026 1077 1076 1027 1078 1028 
1079 1029 1030 1031 1032 1033 1034 1035 1036 
1037 987 1038 988 1039 989 1040 990 1041 
991 992 993 994 995 996 1098 1047 1097 
1099 1150 1100 1242 1239 1240 1243 1244 1104 
1105 1156 1107 1108 1109 1110 1111 1061 1112 
1062 1113 1063 1114 1064 1115 1065 1066 1067 
1068 1069 1070 1071 1072 1123 1124 1073 1125 
1074 1126 1075 1127 1128 1129 1130 1080 1131 
1132 1081 1082 1133 1083 1134 1084 1085 1086 
1087 1088 1089 1090 1091 1092 1042 1093 1043 
1094 1044 1095 1045 1096 1046 1148 802 801 
1149 753 1245 1246 1247 1154 1155 1157 1158 
1159 1160 1161 1162 1163 1164 1165 1166 1167 
1116 1117 1168 1118 1169 1119 1170 1171 1120 
1121 1172 1122 1173 1174 1175 1153 1152 1151 
1103 1102 1101 1053 1052 1051 1003 1135 1002 
1136 1001 1137 953 1138 952 1139 951 1140 
903 1141 902 1142 901 1143 853 1144 852 
1145 1146 803 1147 3 2 1 1248 676 
626 752 751 703 701 702 653 651 652 
603 601 602 553 551 552 503 501 502 
453 451 452 403 402 353 401 352 303 
351 302 253 301 252 251 203 202 201 
153 152 151 103 102 101 53 52 851 
51 
C_[0] 1 1324 double
0 0 0 0 1.9534950805e-22 8.3841585503e-23 2.9342771317e-18 1.1741681508e-15 1.4804995011e-16 
4.9342295896e-17 4.9346868823e-17 4.9345277788e-17 1.480349331e-16 4.2649412833e-11 8.9364967133e-11 1.8656133868e-10 4.1217616445e-09 3.1399477791e-09 
2.5731095344e-10 3.7068267081e-10 3.9094486964e-09 3.2831380268e-09 3.9568765697e-10 2.9865122951e-09 1.7599922222e-09 3.18713867e-10 2.0390914073e-10 
1.07940894e-09 5.4851598345e-10 1.0824867764e-10 2.5042330805e-10 5.1486500782e-11 2.2408215901e-11 1.0238357578e-10 3.7881455764e-11 9.0803595878e-12 
1.2273838534e-11 3.4507959471e-12 1.2187155123e-12 3.3446278616e-12 3.9855348673e-13 8.3928023159e-13 1.9830528556e-13 1.1954317572e-13 3.2454105278e-14 
3.5998917079e-14 7.8744753799e-15 7.3983972821e-15 1.5773607902e-15 1.2117221869e-15 2.4524909041e-16 2.9921317544e-16 5.0151786292e-17 4.1495944286e-17 
8.7051675334e-18 7.0517436842e-18 1.2675776574e-18 1.3718157275e-18 1.9329406245e-19 2.1995801218e-19 2.7406169618e-20 3.6964629107e-20 5.6265469324e-21 
3.1977589126e-21 3.6387690982e-22 7.3641773128e-22 8.733491006e-23 3.0320434757e-23 8.1252030305e-24 2.6844154034e-24 7.2214724725e-25 1.6244296429e-25 
5.9304790843e-26 1.3385816163e-26 4.9006765805e-27 8.7409067459e-28 3.8104192296e-28 7.6602747109e-29 2.7957475267e-29 4.6052244716e-30 1.7963720072e-30 
3.7797313726e-31 1.2075134156e-31 2.0318864008e-32 6.9376705412e-33 1.4567942947e-33 3.9825643861e-34 6.1492035881e-35 1.1964536901e-35 4.2203808195e-36 
3.5088415849e-37 3.9174037391e-36 2.6228641565e-37 1.3811070707e-42 1.0857990589e-42 7.9921975591e-44 1.12350637e-43 0 0 
0 0 0 0 0 0 1.3345979572e-14 9.711609149e-10 6.0009370583e-09 
3.4288987652e-08 2.2090875346e-09 5.3726882411e-09 3.7340921949e-08 7.7460762088e-09 5.0590668451e-08 5.2035203643e-08 2.4001390759e-08 1.4371101697e-08 
6.901890196e-09 3.1883868222e-09 1.3404072862e-09 5.0861109219e-10 1.6778120437e-10 9.1870642961e-10 4.7486569479e-11 2.4422428233e-10 5.4768430462e-11 
1.275136712e-11 3.2008581689e-12 9.9111450057e-12 2.0441342085e-12 5.2003686774e-13 1.0742960437e-13 3.1567165363e-13 5.916964699e-14 1.6353147306e-14 
7.8834953651e-15 3.0477480423e-15 4.8908738596e-16 8.8981304853e-17 1.7256448575e-17 3.0048044964e-18 5.2409343111e-19 8.6168108494e-20 1.3157923994e-20 
1.9244831918e-21 2.3702954056e-22 2.9132211934e-23 3.1052418384e-24 3.1509014774e-25 2.7434999439e-26 8.4068034509e-27 2.3840392773e-27 7.4759531572e-28 
1.7907879418e-28 6.1698699067e-29 1.4730854431e-29 4.5078169334e-30 1.0341977192e-30 2.9269236486e-31 7.4271209818e-32 2.0502543988e-32 3.1251275979e-33 
9.4483099037e-34 1.8998669684e-34 4.8569013257e-35 1.7168468418e-36 8.5071206967e-42 2.3856384212e-44 0 0 0 
0 3.1295722933e-16 0 1.3042510428e-13 1.0020889736e-12 3.4526049005e-08 2.0602095296e-07 1.8857668684e-07 8.7543204438e-08 
6.1337357239e-07 2.2082699337e-07 1.5897501956e-06 2.95105588e-07 1.5587025487e-07 1.3096696109e-06 6.4283388249e-07 2.6083408604e-07 1.3769617019e-07 
5.8013349673e-08 2.2515526316e-07 2.4422211822e-08 7.7984306075e-08 9.1670977087e-09 2.3219997207e-08 3.0641890104e-09 6.5391758703e-09 1.4026165626e-09 
3.2181514356e-10 6.124716524e-11 7.8111405295e-11 9.5875086092e-12 9.8145229486e-12 1.5183642978e-12 1.5613891233e-12 1.9801996796e-13 2.9532934285e-14 
5.1720542155e-15 1.0964113976e-15 7.7942600286e-16 1.7409699372e-16 1.2185504502e-16 2.8525598039e-17 5.0848771416e-18 9.1283492092e-19 1.495541799e-19 
2.4389754122e-20 3.2163805875e-21 4.6145926466e-22 2.1795882124e-22 5.762057603e-23 2.9416287405e-23 7.2468555752e-24 3.4190732213e-24 8.242508857e-25 
3.8638781601e-25 8.5941916934e-26 4.1400588328e-26 4.0551359944e-27 3.7769191579e-28 3.2076737685e-29 2.5161902315e-30 1.7495394222e-31 1.0820136338e-32 
5.0776342912e-34 4.4916899153e-33 2.9540566331e-34 2.9245263022e-35 1.8431621763e-35 1.2313654993e-36 1.0354465759e-40 4.453195692e-42 2.8085150171e-42 
1.5114413854e-46 0 0 0 0 0 0 1.2049828356e-14 7.1891034187e-12 
1.2225722598e-06 1.0214850883e-06 5.5469382883e-06 3.3512422809e-06 1.6983466479e-05 8.3834597841e-06 2.5660098277e-06 1.3337397394e-05 8.0311461941e-06 
3.6206256806e-06 1.5424816349e-06 6.7579371294e-06 5.9207050575e-07 2.3932701979e-06 7.8074980622e-07 2.1701153243e-07 5.8692944845e-08 1.2485044037e-07 
1.200214141e-08 2.6250944307e-08 2.6487679094e-09 4.0181731872e-09 4.0179216988e-10 7.1686444333e-10 9.1551787352e-11 1.392698239e-11 1.5934592464e-12 
1.7038572487e-13 2.2953621311e-13 2.4462858057e-14 2.4986728146e-14 3.4155563024e-15 5.775339665e-16 8.7178948409e-17 1.9975232769e-17 3.2940110039e-18 
5.7175793372e-19 8.4339071208e-20 5.1660470071e-20 1.19155393e-20 7.5170512086e-21 1.7625377001e-21 9.1350153815e-22 1.1876558416e-22 1.3241660506e-23 
1.4809178747e-24 1.5682823268e-25 1.5293910973e-26 1.4578977586e-27 1.2727725602e-28 1.0740308648e-29 5.3222301322e-30 8.4993259642e-31 4.3068324497e-31 
6.32493116e-32 3.3226922203e-32 2.5323007418e-33 1.8405869811e-34 1.3741675715e-35 8.4708718005e-41 3.4985828914e-42 0 0 
0 0 2.631306283e-13 1.7061893544e-12 4.5721262421e-11 2.818118403e-10 7.0449789607e-06 4.0415027482e-05 2.9584774717e-05 
0.00015768763578 8.4332088073e-05 3.9616088783e-05 0.00017985408064 0.00025510923928 6.2070343567e-05 3.9636131841e-05 0.00016767988664 1.7864287572e-05 
7.5789606963e-05 2.6605049959e-05 8.5392616818e-06 2.6860816602e-05 2.3488104628e-06 7.3334760742e-06 6.1449908693e-07 1.521775034e-06 3.3173867616e-07 
5.0791486259e-08 9.22379836e-09 2.0587913512e-08 1.4622383222e-07 1.0450803278e-09 3.151811814e-09 1.6616652678e-10 3.2176940273e-10 4.3257732491e-11 
1.7140313703e-11 2.5681940753e-12 4.0902981792e-12 5.8862050058e-13 2.5683319979e-13 3.8503577542e-14 3.9623358634e-15 4.5609486139e-15 5.2707144969e-16 
1.5391747292e-17 1.033377322e-16 1.6044719049e-17 2.4552946491e-18 3.8595874414e-19 2.6249896837e-18 3.5274496574e-19 4.8689662961e-20 6.2240273416e-21 
7.2657783131e-22 8.0047631094e-23 8.4777095898e-24 8.6184769432e-25 5.5726187434e-25 8.3526366256e-26 4.8011456419e-26 8.0063343419e-27 4.0600476171e-27 
7.1950167919e-28 3.4717681915e-28 6.3754001431e-29 2.91805323e-29 2.4546752604e-30 2.053390533e-31 1.7170528707e-32 1.4378945416e-33 1.2118286754e-34 
8.4225411102e-35 9.7573903985e-36 7.02966858e-41 3.7819000769e-41 2.4659851104e-42 0 0 0 0 
0 0 0 0 1.1798183738e-11 1.5850341993e-09 0.00023100654727 0.00080624845379 0.00040675783211 
0.0018589831809 0.00075907484855 0.0030358432632 0.0034744352759 0.00095534778312 0.00065965062422 0.0020760937426 0.00097465024493 0.00026923291505 
9.7573990688e-05 0.0002912501946 8.8382234461e-05 2.0022896479e-05 4.6087968311e-06 1.1158250142e-05 2.2112514813e-06 8.0612218765e-07 3.55100282e-07 
5.9090338579e-08 7.9129290144e-09 3.6646794992e-09 1.1539898507e-09 4.5601250748e-10 1.1590561538e-10 5.2693857436e-11 1.3333150946e-11 6.3461820307e-12 
1.5837329044e-12 2.0411421127e-13 6.0214118726e-14 9.5546854073e-15 8.1410833578e-16 1.3350464556e-15 1.3497043898e-16 2.3249090573e-17 3.1723827858e-18 
4.5706420986e-19 6.2264503773e-20 6.6746162793e-21 7.6484217474e-22 6.6623727277e-22 7.0710641947e-23 6.3242085266e-23 6.4684193862e-24 4.9468590145e-24 
3.9197239647e-25 3.0997561204e-26 2.4396486434e-27 1.9751630872e-28 1.6058468662e-29 1.3480574818e-30 1.1400604586e-31 7.6840630484e-32 1.0012483309e-32 
6.8815149489e-33 8.9998561015e-34 6.8483874349e-34 6.5090200821e-35 6.8077993025e-40 6.0225995501e-40 3.2367628687e-41 0 0 
0 0 0 0 0 6.2506094134e-11 3.8991627172e-10 8.9979591104e-09 4.8343719974e-08 
0.0012386842558 0.0067395575401 0.0039674124897 0.018255912055 0.0080013903786 0.030943522798 0.011257930223 0.037123822331 0.032558471904 
0.010712062817 0.006869592279 0.016651712775 0.0075039341276 0.002551862111 0.00093500326892 0.0020808076108 0.00062425556864 0.00022514095952 
5.8028481678e-05 0.00012875821244 2.8371319484e-05 5.0326047994e-06 9.3086675148e-07 1.4864889353e-07 9.9824412323e-08 4.9986652232e-07 2.3738122205e-08 
1.9056357753e-08 3.9315574124e-09 7.1389997667e-10 1.41918525e-10 2.5558438882e-11 9.1038276855e-12 9.0582471818e-13 1.4771952179e-12 2.6681209995e-14 
1.251665826e-13 2.5909907609e-14 5.0704453094e-15 9.5346321989e-16 2.5595926697e-16 3.866503499e-17 5.8079664653e-18 8.0211742766e-19 9.7236501412e-20 
1.1159034918e-20 9.6427170209e-21 9.5883807124e-22 5.2636581008e-23 4.1673347612e-24 2.9379081607e-25 2.1704996405e-26 1.9927926335e-26 1.6633731671e-27 
1.419714605e-27 1.2758550495e-28 1.1016178024e-28 1.0475398233e-29 8.5307821515e-30 8.6143760952e-31 7.3141267428e-31 6.3348489129e-32 6.1888354766e-33 
5.8724878926e-34 6.3426070979e-35 5.4222337108e-40 3.6214178994e-41 0 0 0 3.6625630858e-09 2.591632457e-08 
5.1532525975e-08 3.364229972e-07 0.035902527601 0.077461804177 0.10673596467 0.10779709514 0.075838344757 0.042863402716 0.014514906294 
0.0052052932432 0.0012096767152 0.00030204782742 0.00013500677479 6.2400769032e-05 1.247785254e-05 7.3495739065e-06 2.539626774e-06 4.447058422e-07 
3.382767531e-08 1.3028880511e-08 3.2351300844e-09 2.8713340805e-10 2.7529664865e-10 4.6770285722e-11 5.8256149217e-13 4.4322998902e-13 2.7033660918e-13 
6.4323271924e-14 2.7573186315e-15 3.6490516216e-16 1.5523167089e-16 5.0476856496e-17 2.4466427104e-17 3.4925110101e-18 4.8972064482e-19 2.5770360328e-19 
3.793689162e-20 2.1334955847e-20 1.857604982e-21 8.2800383953e-22 7.3838797311e-23 8.1783200115e-23 6.7978974268e-24 3.9338953026e-24 2.8646729531e-25 
3.7320377793e-25 2.5790112476e-26 1.7710671494e-27 1.2414681029e-28 9.900273935e-30 7.967694428e-31 7.1615382729e-32 6.5939853108e-33 6.6675733352e-34 
6.7639922297e-35 6.384102604e-40 3.8366211684e-41 0 3.5442454901e-06 0.99999600663 1.8920909144e-06 3.4281906159e-06 0.9999965957 
3.587420405e-06 0.99999632836 3.7452424629e-06 0.99999624078 4.0965929514e-06 0.99999584384 0.20554471913 0.79086433751 0.28241315566 
0.68532572131 0.29621228301 0.58340520661 0.24823742431 0.45526914427 0.17097823968 0.25664203444 0.13415868217 0.07409633317 
0.031577853232 0.042538769715 0.015011789895 0.0086105241051 0.0025287298217 0.0036715536315 0.0005930309763 0.00093192067691 0.00021482813338 
4.9278906032e-05 3.2086624686e-05 1.3248362495e-05 3.018806148e-06 1.9248813383e-06 9.3474366415e-07 1.4231081472e-07 2.1340845206e-07 2.1083404875e-08 
2.1723786053e-09 1.4699561762e-09 7.3292003936e-11 1.1072496901e-10 6.9137696922e-12 1.0667961759e-11 8.2445406142e-12 6.5816242089e-12 1.3777823196e-11 
1.0084210462e-11 7.7936264042e-12 6.3022624382e-12 1.9452430704e-11 1.3704548941e-11 9.7892317425e-12 1.1458126697e-11 1.9898162662e-11 1.3924514277e-11 
1.0310292325e-11 1.3285975945e-11 1.7481956499e-11 2.8493695462e-11 2.0542156474e-11 1.4417849207e-11 9.2922998217e-12 1.183601518e-11 1.5596368729e-11 
2.0962355373e-11 2.9661508034e-11 2.1400305916e-11 1.5131551474e-11 1.3896617612e-11 1.8970016877e-11 2.6078450949e-11 3.1240899263e-11 2.2630298185e-11 
1.6038551138e-11 1.7317242011e-11 2.4205674055e-11 1.5645648161e-13 2.4459440643e-13 5.4943187199e-12 4.2928703904e-12 5.287601054e-12 4.1841972738e-12 
3.2476504079e-12 2.4755187294e-12 5.1258257415e-12 4.0942342002e-12 3.2072114244e-12 2.4797439824e-12 1.908247825e-12 6.6917079985e-12 8.7641318335e-12 
3.4817418609e-12 4.6248149263e-12 2.5078204058e-12 1.9521870185e-12 1.4709752762e-12 6.1320092701e-12 7.9888557084e-12 2.4945861729e-12 3.2472797455e-12 
1.9969085435e-12 1.5110981621e-12 4.2487631791e-12 5.5984783962e-12 7.2825221748e-12 2.0394857328e-12 1.5523260903e-12 1.1420312462e-12 1.7629002201e-12 
2.3644275746e-12 3.0701174053e-12 1.6878961314e-12 2.0828008258e-12 1.5932515484e-12 1.1800342947e-12 2.2521591242e-12 1.2080803454e-12 1.6319166279e-12 
2.1557487907e-12 2.8273777804e-14 4.5394842847e-14 7.9850461848e-18 6.5969973411e-17 4.6199567732e-18 7.546313759e-19 1.1869103058e-19 3.1716562731e-20 
3.4236111071e-21 5.7109324765e-21 2.2735728002e-22 4.9668207497e-22 2.7056193936e-23 1.0384997813e-23 7.9226405566e-25 1.2557174601e-24 8.2873357732e-26 
4.2414490771e-26 4.6224070834e-27 2.7169225454e-27 2.9409586648e-28 1.8976258242e-28 1.3586396633e-29 2.2286355129e-29 1.1173114496e-30 1.4662972743e-31 
9.5614315886e-32 8.8957940448e-33 8.8339175688e-34 1.277659444e-33 8.8327468482e-35 8.2767078247e-40 1.1852794775e-39 6.6442687516e-09 1.0102788859e-06 
3.7137022185e-06 0.99999920301 0.99999383119 0.99999452404 0.99999999332 0.99999997654 0.99999994597 0.99999965295 0.95873592648 
0.89021908721 0.78019478702 0.85005993916 0.58329885425 0.67598816959 0.37048483425 0.38596729675 0.19834336629 0.1503022856 
0.063332890871 0.062520518909 0.021902378279 0.016943987212 0.0049613794754 0.0050520199739 0.0011051858246 0.00024563397211 5.5318036359e-05 
1.1366315569e-05 2.7146905237e-06 5.6343554821e-07 8.0209257568e-08 8.2627368284e-09 6.7663025166e-10 1.1400829445e-09 1.6498721015e-10 2.4938955947e-12 
1.3976790487e-12 1.9787551023e-13 2.8866494491e-14 3.6400012477e-15 1.8714874309e-15 4.4481253084e-16 2.911629712e-16 4.8316221303e-17 5.8469024095e-18 
4.0913545718e-19 2.7851095789e-19 1.684402618e-20 1.1267123418e-20 5.5859267725e-22 9.8138194775e-22 3.8405342188e-23 2.4863372708e-24 1.2302883593e-25 
7.953921712e-27 5.3026876561e-28 3.7305898317e-29 1.7184707416e-30 2.9890854587e-30 2.4857133175e-31 1.3502201532e-32 2.1878606198e-32 2.1359477453e-33 
1.370277542e-34 2.0128994021e-34 1.8748792417e-39 5.6476433151e-07 4.4528178589e-07 3.5569394337e-06 0.9999970386 0.99999985571 1 
1 0.9999999994 0.99999999965 0.9999999279 0.99999996755 0.9877083872 0.99299878177 0.94957946646 0.96348146541 
0.8802160047 0.6850238367 0.44279405221 0.41374782596 0.18291553608 0.21262455518 0.077398396121 0.066934743293 0.019960476494 
0.0057492050824 0.0012446123201 0.0012650344304 0.00026092075669 0.00026750531988 5.0847790778e-05 5.2951105479e-05 1.041170164e-05 1.8944454397e-06 
1.2949975016e-07 3.5819611491e-07 2.7224638592e-08 6.377030309e-08 6.3995109156e-09 1.2749060256e-09 2.2952830846e-10 5.6809004776e-11 1.1280379084e-11 
1.8862658659e-12 1.5609462595e-11 1.8135507322e-12 2.5504517896e-13 7.1504826808e-14 1.1370553365e-14 5.1051765937e-15 7.773593291e-16 1.1410843099e-16 
1.7468748687e-17 3.8350862253e-18 2.1210503179e-18 1.9463172796e-19 2.5083603589e-19 1.8761387327e-20 1.1739847331e-21 8.6249031303e-23 5.2822058516e-23 