# vtk DataFile Version 4.1
Generated by LAMMPS
ASCII
DATASET POLYDATA
POINTS 1324 float
0.0601192 0.0339256 0 0.102442 0.0221627 0 0.121245 0.0547232 0 
0.137984 0.00659238 0 0.169659 0.0298547 0 0.177434 5.52717e-08 0 
0.233705 0.0629967 0 0.200206 1.85707e-07 0 0.201097 5.20598e-08 0 
0.211905 1.8656e-08 0 0.201547 2.57109e-07 0 0.201247 4.29289e-08 0 
0.212059 5.77105e-08 0 0.200763 1.19486e-07 0 0.208497 1.08153e-07 0 
0.212089 9.42937e-08 0 0.201349 1.3878e-07 0 0.201247 3.55644e-07 0 
0.275864 3.03343e-08 0 0.286623 3.43878e-09 0 0.326392 9.51177e-08 0 
0.376375 0.0556609 0 0.362515 3.19508e-08 0 0.401741 4.70729e-08 0 
0.443642 0.0549375 0 0.441372 8.28045e-10 0 0.502705 0.0542669 0 
0.481239 8.59022e-08 0 0.521161 1.13166e-07 0 0.571873 0.0424812 0 
0.561201 1.49004e-07 0 0.607199 0.0487444 0 0.632145 0.0505166 0 
0.601306 6.88435e-08 0 0.641291 5.41861e-08 0 0.676486 0.0472313 0 
0.701567 0.0526482 0 0.681309 5.50652e-08 0 0.724693 0.0514467 0 
0.747566 0.0465954 0 0.721405 2.36162e-09 0 0.761526 1.69744e-08 0 
0.772693 0.0422149 0 0.800268 0.0405788 0 0.801728 1.52701e-08 0 
0.82888 0.0312648 0 0.869333 0.0188047 0 0.841891 3.4836e-08 0 
0.882267 4.16877e-09 0 0.922087 8.85907e-08 0 0.968269 0.0223177 0 
0.962386 1.38907e-08 0 1.01417 0.0560458 0 1.04513 0.0548282 0 
1.00277 4.24157e-08 0 1.0426 2.38616e-08 0 1.07514 0.0468881 0 
1.09895 0.053334 0 1.08306 3.10067e-08 0 1.13501 0.0516678 0 
1.17049 0.0441416 0 1.12312 9.66228e-09 0 1.16383 1.77049e-08 0 
1.20592 0.0515587 0 1.23506 0.0514602 0 1.20399 1.06197e-08 0 
1.26479 0.0484191 0 1.29282 0.0494671 0 1.24755 7.41086e-09 0 
1.28962 1.32617e-08 0 1.31975 0.050284 0 1.34646 0.0500684 0 
1.33449 6.99445e-09 0 1.37255 0.0480971 0 1.39898 0.0474868 0 
1.37566 1.43162e-08 0 1.42564 0.0441662 0 1.45396 0.0401489 0 
1.42276 9.70462e-09 0 1.48439 0.0356838 0 1.47682 2.70572e-09 0 
1.51702 0.032966 0 1.53481 1.70068e-08 0 1.55873 0.0289973 0 
1.58271 1.01134e-08 0 1.61263 0.0178327 0 1.63092 0.0578069 0 
1.66486 0.0259594 0 1.65661 8.69424e-09 0 1.6937 0.0512383 0 
1.7122 1.77871e-08 0 1.72118 0.0293943 0 1.7491 0.0472151 0 
1.76154 0.0160924 0 1.78016 0.0429303 0 1.79266 0.00504819 0 
1.83328 0.0224778 0 1.85792 0.0382104 0 1.874 3.10947e-09 0 
1.88805 0.0397517 0 1.90084 0.0157329 0 1.94206 0.00234664 0 
1.96126 0.0213411 0 1.97935 6.04088e-09 0 2.0025 0.0531468 0 
0.0258021 0.0876183 0 0.0718999 0.0931996 0 0.0777814 0.062163 0 
0.114942 0.088313 0 0.170583 0.0600972 0 0.165628 0.0907146 0 
0.216481 0.095868 0 0.257268 0.0900866 0 0.29024 0.0612775 0 
0.314231 0.105496 0 0.330891 0.0600786 0 0.351875 0.0937861 0 
0.388801 0.114005 0 0.411127 0.0649112 0 0.438551 0.117527 0 
0.481992 0.115762 0 0.479436 0.0683725 0 0.539088 0.0608864 0 
0.56426 0.0907814 0 0.611786 0.0968855 0 0.649816 0.111486 0 
0.660224 0.0608839 0 0.694745 0.107352 0 0.726264 0.1109 0 
0.766662 0.0983666 0 0.783932 0.110527 0 0.817508 0.0985904 0 
0.837277 0.0890046 0 0.861969 0.0842414 0 0.884698 0.0756991 0 
0.907503 0.0655104 0 0.93269 0.0662883 0 0.958437 0.0676053 0 
0.986786 0.0642743 0 1.00725 0.116383 0 1.03522 0.113616 0 
1.06226 0.109308 0 1.09015 0.105866 0 1.11902 0.108531 0 
1.14913 0.109764 0 1.15852 0.0680956 0 1.18481 0.105482 0 
1.2267 0.111399 0 1.25076 0.0929798 0 1.27307 0.114158 0 
1.30571 0.103966 0 1.338 0.10603 0 1.36705 0.105231 0 
1.39311 0.108949 0 1.41877 0.106668 0 1.44326 0.103575 0 
1.46679 0.0974086 0 1.49066 0.0961894 0 1.51399 0.0943978 0 
1.53628 0.0884571 0 1.55894 0.0822985 0 1.58066 0.0728124 0 
1.60445 0.0622241 0 1.66298 0.0585767 0 1.754 0.116306 0 
1.78065 0.113917 0 1.80732 0.106144 0 1.83616 0.101629 0 
1.86642 0.0968842 0 1.89757 0.0870931 0 1.92772 0.0721268 0 
1.96235 0.110412 0 1.96967 0.0686669 0 1.99244 0.0967334 0 
0.0651572 0.140457 0 0.0304932 0.141421 0 0.100249 0.136628 0 
0.136641 0.132808 0 0.169328 0.173718 0 0.176637 0.131417 0 
0.219922 0.13675 0 0.285473 0.123069 0 0.264997 0.150756 0 
0.312285 0.165202 0 0.342054 0.137879 0 0.359419 0.171724 0 
0.399366 0.150116 0 0.44447 0.163598 0 0.492055 0.151106 0 
0.530792 0.123099 0 0.540672 0.167911 0 0.572779 0.134985 0 
0.610204 0.144436 0 0.652461 0.149323 0 0.690321 0.153847 0 
0.729712 0.146766 0 0.774265 0.151008 0 0.834202 0.141408 0 
0.841749 0.173327 0 0.873828 0.147825 0 0.899189 0.134791 0 
0.925357 0.130739 0 0.952478 0.128142 0 0.980733 0.123707 0 
0.994671 0.171343 0 1.02995 0.166683 0 1.06278 0.16097 0 
1.09617 0.15905 0 1.12855 0.157687 0 1.16035 0.153412 0 
1.19317 0.154551 0 1.22715 0.154258 0 1.2619 0.156298 0 
1.29744 0.162286 0 1.33577 0.1424 0 1.35714 0.16749 0 
1.39623 0.171309 0 1.42621 0.163631 0 1.4702 0.159122 0 
1.51175 0.15864 0 1.54561 0.154977 0 1.57625 0.149563 0 
1.60391 0.141944 0 1.63089 0.137756 0 1.65508 0.129684 0 
1.68103 0.130217 0 1.70383 0.122678 0 1.72915 0.122231 0 
1.74341 0.173883 0 1.79346 0.163222 0 1.81962 0.155991 0 
1.84726 0.150676 0 1.87466 0.141947 0 1.90288 0.13086 0 
1.93251 0.120864 0 1.94268 0.174156 0 1.97065 0.160524 0 
1.99974 0.14826 0 0.036402 0.189993 0 0.00836572 0.202238 0 
0.0691089 0.187678 0 0.0940858 0.229358 0 0.100822 0.181069 0 
0.127641 0.231364 0 0.135089 0.178626 0 0.158333 0.220647 0 
0.192891 0.227996 0 0.204928 0.177912 0 0.242543 0.18195 0 
0.225081 0.22279 0 0.259619 0.234722 0 0.283557 0.195135 0 
0.297516 0.23626 0 0.327178 0.203995 0 0.365113 0.217174 0 
0.403282 0.189719 0 0.409979 0.229522 0 0.448153 0.203305 0 
0.49328 0.189031 0 0.493728 0.224246 0 0.544573 0.203574 0 
0.591453 0.18391 0 0.593119 0.217805 0 0.637745 0.189132 0 
0.6509 0.21954 0 0.693705 0.191761 0 0.700687 0.221226 0 
0.739673 0.186821 0 0.76301 0.209382 0 0.797886 0.176854 0 
0.810969 0.206406 0 0.826174 0.233184 0 0.879292 0.191512 0 
0.869109 0.221185 0 0.920085 0.185873 0 0.932487 0.21341 0 
0.96229 0.17807 0 0.976421 0.210693 0 1.03227 0.204352 0 
1.0704 0.203166 0 1.10304 0.233556 0 1.11297 0.198485 0 
1.15051 0.199502 0 1.19067 0.196547 0 1.1932 0.231826 0 
1.22676 0.19662 0 1.26468 0.201312 0 1.27392 0.234727 0 
1.30302 0.197637 0 1.34586 0.201665 0 1.3849 0.208337 0 
1.42843 0.213933 0 1.45849 0.187228 0 1.47163 0.223466 0 
1.5012 0.19253 0 1.52293 0.231144 0 1.54181 0.194242 0 
1.57919 0.193825 0 1.61231 0.191173 0 1.64299 0.190936 0 
1.67023 0.185126 0 1.69688 0.19267 0 1.72266 0.188648 0 
1.77087 0.176152 0 1.77943 0.22871 0 1.80971 0.231537 0 
1.82917 0.210146 0 1.85873 0.206658 0 1.88719 0.198698 0 
1.91228 0.181964 0 1.92029 0.232083 0 1.95189 0.225748 0 
1.97712 0.206714 0 0.0653281 0.244244 0 0.0315488 0.240777 0 
0.0786457 0.283228 0 0.112335 0.287792 0 0.140582 0.270623 0 
0.173898 0.281165 0 0.203926 0.268119 0 0.236518 0.282395 0 
0.268623 0.274337 0 0.302077 0.290842 0 0.332859 0.252704 0 
0.340998 0.290354 0 0.375025 0.25662 0 0.411624 0.273821 0 
0.449377 0.244738 0 0.456873 0.282104 0 0.497133 0.259205 0 
0.543925 0.237937 0 0.546548 0.272777 0 0.59028 0.28115 0 
0.601829 0.250698 0 0.648434 0.251759 0 0.65415 0.282568 0 
0.696612 0.277741 0 0.714135 0.2499 0 0.758832 0.240923 0 
0.766154 0.270099 0 0.810075 0.260764 0 0.819168 0.288986 0 
0.863894 0.276968 0 0.881208 0.248315 0 0.924957 0.243701 0 
0.937924 0.269588 0 0.980456 0.264008 0 0.996695 0.236168 0 
0.989388 0.292264 0 1.03825 0.237063 0 1.03469 0.286745 0 
1.05761 0.261617 0 1.09886 0.264078 0 1.10957 0.292263 0 
1.14529 0.237865 0 1.15267 0.293368 0 1.16684 0.264909 0 
1.20616 0.27616 0 1.23281 0.243131 0 1.25887 0.27176 0 
1.29752 0.277366 0 1.31385 0.239004 0 1.35415 0.238581 0 
1.34379 0.274872 0 1.38148 0.283505 0 1.39754 0.248377 0 
1.4294 0.289919 0 1.43715 0.251511 0 1.47952 0.259969 0 
1.52027 0.264026 0 1.56039 0.273255 0 1.56664 0.236889 0 
1.60079 0.277492 0 1.60523 0.238175 0 1.63492 0.287456 0 
1.64057 0.242232 0 1.67279 0.246178 0 1.70287 0.25257 0 
1.66833 0.293225 0 1.72983 0.244286 0 1.75905 0.248674 0 
1.78241 0.287709 0 1.81365 0.289997 0 1.83434 0.265671 0 
1.86512 0.261341 0 1.89415 0.24973 0 1.91307 0.28755 0 
1.94602 0.282043 0 1.97262 0.261857 0 2.00552 0.260389 0 
0.0509278 0.301805 0 0.0570879 0.340262 0 0.0171556 0.29899 0 
0.0907994 0.345261 0 0.118798 0.326188 0 0.151696 0.335769 0 
0.180816 0.319829 0 0.21256 0.33392 0 0.242433 0.321224 0 
0.274608 0.337407 0 0.306456 0.328485 0 0.34131 0.344097 0 
0.375309 0.305974 0 0.378588 0.342504 0 0.417769 0.310329 0 
0.454164 0.324889 0 0.497302 0.297146 0 0.496535 0.332672 0 
0.540425 0.306246 0 0.545806 0.341134 0 0.585526 0.34484 0 
0.597852 0.313437 0 0.638012 0.311958 0 0.650722 0.341857 0 
0.689887 0.336897 0 0.706019 0.307594 0 0.749366 0.298904 0 
0.756947 0.328322 0 0.79971 0.318013 0 0.804354 0.348431 0 
0.847343 0.33522 0 0.869862 0.305424 0 0.913549 0.296718 0 
0.914981 0.325451 0 0.950159 0.350137 0 0.961439 0.316042 0 
1.00013 0.342431 0 1.03405 0.31437 0 1.06166 0.345698 0 
1.08336 0.315021 0 1.12193 0.344497 0 1.15274 0.32416 0 
1.1982 0.335462 0 1.21485 0.305837 0 1.25493 0.30865 0 
1.24726 0.345948 0 1.28783 0.346551 0 1.304 0.310519 0 
1.33316 0.348701 0 1.34335 0.313711 0 1.39029 0.318246 0 
1.42522 0.326872 0 1.46407 0.297454 0 1.47002 0.335434 0 
1.50453 0.343775 0 1.5067 0.300352 0 1.54117 0.31359 0 
1.54648 0.347263 0 1.58178 0.312299 0 1.61309 0.331502 0 
1.64915 0.334029 0 1.69918 0.302136 0 1.67612 0.351686 0 
1.70729 0.35253 0 1.7287 0.300998 0 1.75839 0.30631 0 
1.76373 0.348913 0 1.79709 0.350234 0 1.82294 0.329034 0 
1.85511 0.320702 0 1.8848 0.305999 0 1.89239 0.348594 0 
1.92566 0.3406 0 1.95534 0.320389 0 1.98909 0.318349 0 
0.0638981 0.402376 0 0.0279671 0.359071 0 0.030166 0.396845 0 
0.0931748 0.383664 0 0.126123 0.392133 0 0.155065 0.374475 0 
0.186228 0.388105 0 0.215434 0.372853 0 0.246036 0.387239 0 
0.276452 0.375451 0 0.309744 0.389692 0 0.341607 0.380654 0 
0.37839 0.394549 0 0.415276 0.357453 0 0.413928 0.393039 0 
0.455225 0.360483 0 0.456209 0.403779 0 0.492143 0.405499 0 
0.499261 0.371156 0 0.537675 0.374744 0 0.547464 0.408341 0 
0.584826 0.407996 0 0.59709 0.376233 0 0.635253 0.372267 0 
[...]
POINT_DATA 1324
FIELD FieldData 9
id 1 1324 int
142 143 192 94 144 95 145 46 47 
48 49 50 1176 1177 1178 4 5 6 
7 8 9 147 10 11 99 12 1179 
13 14 57 15 59 60 16 17 62 
63 18 64 65 19 20 66 67 21 
68 69 22 23 24 70 25 117 118 
26 27 71 119 28 72 73 29 30 
74 75 31 76 77 32 33 78 79 
34 80 81 35 82 83 36 84 37 
85 38 86 39 87 135 88 40 137 
41 89 138 90 139 42 43 91 92 
140 141 44 93 45 190 239 240 191 
241 193 242 243 194 96 195 97 146 
196 98 197 148 100 1181 1180 55 54 
61 58 56 108 107 109 110 111 112 
113 114 115 116 161 162 163 164 165 
166 120 167 168 121 169 122 123 124 
125 126 127 128 129 130 131 132 133 
134 136 182 183 184 185 186 187 188 
237 189 238 288 287 289 290 340 291 
292 244 293 294 245 295 246 247 198 
149 199 150 1182 1183 1184 104 105 106 
155 156 157 158 159 160 208 209 210 
211 212 213 214 215 216 217 170 218 
219 171 172 173 174 175 176 177 178 
179 180 181 229 231 232 233 234 235 
236 284 285 286 336 335 337 387 338 
388 339 389 390 341 342 391 392 343 
393 344 345 296 346 297 248 298 249 
200 250 1185 1188 1186 1189 1187 1190 154 
204 254 205 255 206 256 207 257 258 
259 309 260 261 262 311 263 264 313 
265 266 267 268 220 269 221 270 222 
223 224 225 226 227 228 230 278 279 
280 281 282 283 332 333 334 386 385 
436 437 438 439 440 441 442 443 394 
444 395 396 347 397 348 299 349 350 
300 1191 1194 1195 1192 1193 1196 304 354 
355 305 306 356 357 307 407 308 408 
358 359 409 310 410 360 361 312 362 
363 314 315 364 365 316 366 317 318 
319 320 271 321 272 322 273 274 275 
323 276 277 327 328 329 330 331 381 
382 383 384 435 485 434 486 487 488 
489 490 491 492 493 494 445 495 446 
447 398 448 399 449 450 400 1197 1200 
1201 1198 1199 1202 404 454 455 405 406 
456 507 457 508 458 509 459 510 460 
461 411 412 462 463 413 464 414 415 
416 367 417 418 368 369 419 370 371 
372 324 373 374 325 326 376 377 378 
379 380 430 431 432 433 535 484 534 
536 537 538 539 540 541 542 543 544 
545 496 546 497 547 548 498 499 549 
550 500 1203 1206 1207 1204 1205 1208 504 
555 505 506 556 557 558 610 609 559 
611 612 560 561 511 614 562 563 512 
513 514 515 465 516 466 467 468 469 
470 420 421 422 423 425 375 426 427 
428 429 480 481 482 483 585 584 586 
587 588 589 590 591 592 593 594 595 
596 597 598 599 600 1209 1212 1213 1210 
1211 1214 604 554 605 606 607 608 667 
625 613 615 621 617 616 564 619 618 
565 620 566 567 568 517 570 571 518 
519 520 521 522 471 472 473 474 424 
475 476 477 478 529 479 530 531 581 
582 532 533 583 635 634 636 637 638 
639 640 641 642 643 693 644 645 695 
646 696 697 647 648 698 699 649 650 
700 1215 1216 1217 654 655 656 657 658 
659 661 671 1249 1252 1253 1254 1259 1260 
1261 1262 1268 1269 1270 1273 1279 1280 1283 
1284 1285 1290 1291 1292 1296 1297 1298 1299 
1303 1304 1305 1309 1310 1311 1316 1317 1318 
1320 1321 576 627 677 1250 1251 1255 1256 
1257 1258 1263 1264 1265 1266 1267 1271 1272 
1274 1275 1276 1277 1278 1281 1282 1286 1287 
1288 1289 1293 1294 1295 1300 1301 1302 1306 
1307 1308 1312 1313 1314 1315 1319 1322 1323 
1324 575 577 628 678 727 674 623 624 
622 569 722 572 573 574 523 524 525 
526 527 578 528 579 629 630 580 631 
632 633 685 684 736 686 687 738 688 
689 740 690 691 742 692 744 694 745 
746 747 748 799 749 750 800 1221 1218 
1219 1222 1223 1220 704 754 755 705 706 
707 660 663 662 675 665 726 725 666 
664 669 668 670 673 716 672 717 718 
767 719 720 768 721 769 770 723 724 
771 772 773 774 823 824 775 825 776 
826 777 728 778 729 679 730 680 681 
731 732 682 683 735 785 734 786 737 
787 789 739 791 741 793 792 743 794 
795 796 797 847 848 798 849 850 900 
1227 1224 1225 1228 1229 1226 804 854 805 
756 806 757 708 709 758 759 710 711 
760 712 761 713 714 762 763 715 764 
765 815 766 816 817 818 819 820 821 
871 822 872 873 874 875 876 827 877 
828 779 829 830 780 781 782 783 733 
784 836 835 837 838 788 839 840 790 
841 842 843 844 895 845 846 896 897 
948 898 899 949 950 1230 1233 1231 1234 
1235 1232 904 855 905 906 856 807 857 
808 858 809 859 810 811 812 862 813 
863 814 864 865 866 867 918 868 919 
869 920 870 921 922 923 924 925 926 
927 928 878 879 880 881 831 832 833 
834 886 885 887 888 889 890 891 892 
893 894 945 944 946 997 947 998 999 
1049 1000 1050 1236 1240 1237 1238 954 1004 
955 1005 956 957 907 908 958 959 909 
910 860 911 861 912 913 914 915 966 
916 967 917 968 969 970 971 972 973 
974 975 976 977 978 979 929 980 930 
931 932 882 933 883 884 937 936 938 
939 940 941 942 993 943 994 995 996 
1047 1048 1098 1099 1100 1242 1239 1243 1241 
1244 1104 1054 1105 1055 1106 1006 1056 1057 
1007 1008 1009 1010 960 1011 1012 961 1013 
962 1014 963 1015 964 1016 965 1017 1018 
1019 1070 1071 1020 1072 1021 1073 1022 1074 
1023 1075 1024 1076 1077 1025 1026 1027 1028 
1029 1030 1031 1032 981 982 983 984 985 
934 986 935 1040 988 987 1039 989 1041 
990 1042 991 992 1043 1044 1095 1045 1096 
1046 1147 1097 1148 1149 1150 1246 1155 1154 
1158 1156 1108 1107 1109 1110 1111 1058 1059 
1060 1061 1062 1063 1064 1065 1066 1067 1068 
1121 1069 1122 1123 1124 1125 1126 1127 1128 
1129 1130 1131 1078 1079 1080 1081 1082 1083 
1084 1033 1085 1086 1034 1035 1036 1037 1038 
1091 1090 1143 1092 1144 1093 852 1094 1145 
851 1146 676 803 802 801 753 1245 1247 
1157 1159 1160 1161 1162 1163 1164 1165 1166 
1167 1168 1112 1113 1114 1115 1116 1117 1118 
1171 1119 1172 1120 1173 1174 1175 1153 1152 
1151 1103 1102 1101 1053 1052 1003 1132 1133 
1002 1001 1134 1135 1136 953 952 1137 1138 
951 1139 1087 1140 1088 1089 1141 901 1142 
853 53 52 51 3 2 1 1248 626 
752 751 703 701 702 653 651 652 603 
601 602 553 551 552 503 501 502 453 
1169 451 452 1170 403 402 353 401 352 
303 351 302 253 301 252 251 1051 203 
202 201 153 152 151 103 903 102 101 
902 
C_[0] 1 1324 double
0 0 0 2.7683990537e-15 1.2559590609e-14 2.2203339842e-14 4.4932612338e-09 3.4559596629e-10 5.6823824873e-10 
9.8039628229e-10 6.0530056992e-10 5.8908790839e-10 9.8694740606e-10 5.3162958953e-10 8.4646873882e-10 9.8719441823e-10 5.8593561211e-10 5.7936335702e-10 
3.1512063688e-08 4.5758263278e-08 1.1299313095e-07 6.8421693481e-07 2.5944376042e-07 5.6623196107e-07 2.8240581467e-06 1.0949909245e-06 6.3618635591e-06 
1.995938733e-06 3.5784010152e-06 1.2905041453e-05 6.0782007225e-06 2.2145370158e-05 2.9785725701e-05 9.5264422127e-06 1.4049625585e-05 4.0557064867e-05 
5.4776981116e-05 1.8522615374e-05 6.230407686e-05 6.011042658e-05 2.228410477e-05 2.4233697546e-05 6.1564286656e-05 6.468955449e-05 2.3440162087e-05 
5.4568639437e-05 3.8839513963e-05 2.0041875066e-05 1.8985391806e-05 1.6940266734e-05 3.2086380044e-05 1.5035633796e-05 6.7437777503e-05 4.7348109762e-05 
1.1483054608e-05 7.2187851873e-06 2.3848654888e-05 2.2890211876e-05 4.5773014014e-06 1.1788640527e-05 5.2181636768e-06 2.5064268115e-06 1.2955975969e-06 
3.2077724621e-06 1.5641247283e-06 5.5441815723e-07 8.4575072122e-07 4.5261386651e-07 2.1933061099e-07 8.9288011069e-08 2.0812448554e-07 1.1218618691e-07 
2.9418175938e-08 5.4187580425e-08 2.5167698056e-08 1.0268745679e-08 9.9120464359e-09 3.6079135031e-09 2.7280523448e-09 1.2630355645e-09 5.0155108118e-10 
4.020480015e-10 7.1731033646e-11 9.130369212e-11 1.4596319969e-11 1.1051781254e-11 1.8240937724e-11 2.1189094597e-12 1.1960984464e-12 1.4432880948e-12 
1.7523451249e-13 2.6649038305e-13 1.9548150603e-13 4.4001364289e-14 6.3171687374e-14 1.3284462576e-14 3.2240415071e-15 3.7065757705e-15 4.4401850087e-16 
1.670201304e-15 1.5115932007e-20 9.0342697206e-22 2.3543544201e-22 0 0 0 0 0 
0 1.0590773381e-14 2.8458690486e-14 7.3701565806e-09 5.3571377232e-08 8.4242635546e-08 5.375005229e-07 2.4097332181e-07 9.2325471542e-07 
4.8989425586e-06 1.8367837102e-06 1.5495188908e-05 3.0786271122e-05 6.5595468861e-06 1.1377413736e-05 3.6069419319e-05 7.3507701797e-05 0.00016908781229 
4.7335506063e-05 0.00024340808283 0.00036826296477 0.00033167749496 0.00052654358225 0.00040126221321 0.00034847684738 0.00032584410423 0.00025439280857 
0.00018684984084 0.00014936586127 0.00013279632534 0.00010589917564 0.00047494603206 0.00032984798719 0.00021672032919 0.00013675735242 9.0166887326e-05 
5.9242617277e-05 1.3454436201e-05 2.9957394331e-05 1.3985115257e-05 4.760287724e-06 5.7897880645e-06 1.8833678452e-06 8.5762285313e-07 4.4158176727e-07 
2.2876587305e-07 9.3601285733e-08 4.263603235e-08 1.7377545573e-08 8.3538904778e-09 3.6748717222e-09 1.5192746334e-09 6.0255454907e-10 2.0957685715e-10 
6.3089240313e-11 6.2577377139e-12 6.2724368811e-12 2.1466385616e-12 6.4729881656e-13 1.8718977226e-13 4.7803526169e-14 1.0097555655e-14 4.8438546254e-20 
3.3298746623e-21 1.6811930698e-21 0 0 0 0 5.2879692168e-15 1.4498756613e-12 2.8656186684e-13 
7.3559122633e-08 4.9424456653e-07 8.5764636986e-07 5.4804459243e-06 3.6749801501e-06 1.9292255073e-05 2.2075717805e-05 7.5574871026e-05 0.0001028321244 
6.5911806822e-05 0.0003033818465 0.00014729278538 0.00029257604574 0.00051742631639 0.00084672218784 0.00096478944277 0.0015158685919 0.0015626466467 
0.003637376262 0.0021174353621 0.0015011919677 0.0011438133334 0.00090706027887 0.00069782680064 0.0021597057348 0.0013501943207 0.00084340846033 
0.00049291708508 0.00028838904524 0.00016167772301 9.1119771595e-05 4.6461756139e-05 2.3314320328e-05 1.1802253989e-05 2.6946595794e-06 3.204183881e-06 
1.3797559267e-06 4.9951262293e-07 1.3898202264e-07 4.2426420017e-08 1.4216447985e-08 5.0993703604e-09 1.8900758986e-09 7.3701925916e-10 2.8246202496e-10 
1.1791496816e-10 4.5787675016e-11 1.7129118493e-11 2.264482303e-11 2.8166506254e-12 8.848912071e-13 2.7439194939e-13 7.5478959206e-14 5.6728365117e-19 
7.4573053533e-20 8.0093812794e-20 0 0 0 0 0 0 0 
3.2642757903e-14 3.3422335421e-14 3.4674237646e-12 5.0164419772e-11 1.127629734e-07 1.7342495504e-06 4.8488349671e-06 2.5928399829e-05 9.7109006809e-06 
7.0788369195e-05 3.5180692115e-05 0.00011985764706 8.9470952084e-05 0.00037979097175 0.00028798086347 0.00034841855285 0.0010076542746 0.00090515623708 
0.00081135742927 0.0022116738722 0.001511923549 0.0038469161342 0.0024460942982 0.0055813440906 0.0031400822137 0.0064682516894 0.0034285805047 
0.0071454405266 0.014002069581 0.0059476596848 0.011130044528 0.0047415178967 0.0081624939622 0.0031554275066 0.0056922971306 0.0030289194048 
0.0018707895025 0.0020382870595 0.00088442868882 0.00051019081195 0.00023892694756 0.00044810671852 0.00011822715533 5.4884082138e-05 7.9827967365e-05 
2.2157955048e-05 8.4226235877e-06 3.5766207163e-06 1.1558509317e-06 3.1583975097e-07 4.0184692962e-07 1.0333969216e-07 9.9530207687e-08 2.9987399767e-08 
9.6024407338e-09 3.2476844481e-09 1.1616707116e-09 4.0683794918e-10 1.6799333928e-10 6.0082869011e-11 7.96252298e-12 1.2004510576e-11 3.8160383998e-12 
1.327682224e-12 3.9232223038e-13 1.0332161428e-13 7.6212552923e-19 1.0255774849e-18 1.1046296123e-19 0 0 0 
0 0 1.7767589003e-12 1.2691431932e-10 3.2748813743e-06 6.7856868049e-05 0.00015521485094 0.00057000864607 0.00025025122385 
0.0011336493519 0.00057083641629 0.0016648024122 0.0010944381822 0.0037199130196 0.0029654793591 0.0025139406935 0.0066688920415 0.012133905025 
0.0058914545752 0.0086666984902 0.019513508909 0.021910508786 0.012697938571 0.012948789604 0.025909776371 0.023845905907 0.041859680486 
0.032974696038 0.019274514612 0.014646142758 0.022246999052 0.014633839934 0.0080146535455 0.020273530561 0.0051219704654 0.011394744271 
0.0060884799424 0.0033843787815 0.0040098079679 0.0011380257117 0.0019997395476 0.001142610376 0.00060615701402 0.00022779384795 0.00018916712415 
8.2272013567e-05 3.5626380389e-05 1.2704282059e-05 2.6331606729e-05 1.0527492224e-05 4.8222223738e-06 3.0046051419e-06 1.6125244852e-06 5.4301972554e-07 
1.6187950983e-07 5.148641077e-08 2.7775418252e-08 1.368024775e-08 7.966479689e-09 4.6813249841e-09 2.5312895962e-09 8.6022515231e-10 3.0931681243e-10 
1.4556631147e-09 1.0264281462e-10 3.4311569423e-11 1.8503430691e-11 5.5565468498e-12 2.0024785188e-12 5.5413930147e-13 1.3896074034e-13 2.3739881687e-18 
2.5473897303e-19 9.2693190929e-21 0 0 0 0 0 0 1.9316007739e-10 
8.9674119557e-10 0.00011656411526 0.00037953806787 0.0016302757183 0.0024530183361 0.0067036798664 0.002973506645 0.01027563452 0.0056852588738 
0.012220816622 0.0084736451007 0.021973208283 0.015797359262 0.037633147346 0.052521961223 0.027784914499 0.034305728498 0.067874373584 
0.071683234706 0.043864207095 0.043124258736 0.076050957004 0.067392490663 0.10513206057 0.083309942881 0.052098367839 0.038068797671 
0.054654730201 0.05107043681 0.034903825825 0.029042810916 0.015579737976 0.012542318482 0.0077847360737 0.0047464499169 0.0025506957528 
0.0010963448499 0.00066075021652 0.00029113245426 0.00039531053686 0.00015428227958 9.3643539898e-05 5.0614864734e-05 3.6600527814e-05 1.0824576463e-05 
4.1982664035e-06 1.184630176e-06 1.2283159897e-06 4.3328052823e-07 3.336281135e-07 1.2306827292e-07 1.1836820095e-07 3.3254943293e-08 1.2353449708e-08 
3.5611262769e-09 5.2040047803e-10 1.474593508e-09 4.4763305703e-10 1.6528852462e-10 5.4843994476e-11 4.9803042081e-11 1.3728042635e-11 4.7388827963e-12 
1.228066986e-12 3.4397773088e-13 2.7249072017e-13 1.7014001691e-18 1.6798049071e-19 0 0 0 0 
0 0 4.6644756976e-10 1.5586379913e-08 0.0006362859085 0.0043777807053 0.0066844990957 0.018799962601 0.022353800637 
0.045635414551 0.021604376876 0.058151644423 0.032894463673 0.093484000867 0.11660887181 0.056333625854 0.076748819666 0.15434422047 
0.17336104685 0.10353672813 0.11144899504 0.18844978294 0.18952123935 0.12411672487 0.11743455379 0.17993889159 0.1610768237 
0.18807412155 0.11800994233 0.091367983162 0.12095875195 0.079371792486 0.038482806923 0.030420324052 0.046442913227 0.019963265848 
0.019692560754 0.009540374643 0.0078247133845 0.0040605731235 0.0018372495122 0.0027339912531 0.0016363214722 0.00076402191484 0.00072983838935 
0.0002689982712 9.5329060833e-05 3.3828060704e-05 1.8657279566e-05 1.3821457696e-05 6.0521433975e-06 2.2830233786e-06 7.9073058872e-07 2.7880512592e-07 
9.6192419052e-08 4.9320202602e-08 1.3462344657e-08 6.1669514319e-09 2.0096471967e-09 2.3191483882e-10 1.5319693983e-10 6.8839576777e-11 1.888252616e-11 
5.025862233e-12 1.279237182e-12 3.1007060953e-13 1.4459732473e-18 8.5857027979e-20 0 6.1015861222e-07 9.9700799452e-07 5.2642478991e-07 
0 2.5248306956e-08 8.1732216265e-08 0.010011127777 0.018767344319 0.059403523506 0.061339586682 0.11554307206 0.11920696795 
0.17683975377 0.19386534305 0.24097899744 0.25862037488 0.28394045394 0.28374010949 0.4087669552 0.39131233979 0.28262626751 
0.26537481861 0.35393206824 0.31078971163 0.22395747483 0.23321248731 0.17785979447 0.10967346079 0.074250377033 0.044161882124 
0.019057606007 0.0096647296696 0.004012797723 0.002051348914 0.0012319279792 0.00066839653456 0.00037597755272 0.0002027959902 0.00013674140075 
0.00015140734893 7.4325128729e-05 5.908047822e-05 2.8136958269e-05 1.5862183306e-05 5.4374379259e-06 4.0765726188e-06 1.8475506611e-06 2.1178920171e-06 
8.9336109015e-07 3.5757878422e-07 1.4908079099e-07 9.731228811e-08 4.6966527022e-08 1.454766591e-08 8.8523668986e-09 3.0720663899e-09 7.2329062659e-10 
1.1406435058e-09 2.6685517407e-10 6.7980173274e-11 1.1205577593e-11 2.3544070708e-12 1.4561490638e-12 3.0961507135e-13 1.6566502681e-18 1.6910968464e-18 
5.6899374527e-20 7.6238845816e-20 0 3.7689054495e-08 0.9999921547 4.3679777685e-06 4.3217074564e-06 4.2383864192e-06 1.6569696971e-06 
4.1354693541e-06 0.060975204866 0.22886724699 0.19718119591 0.32690188383 0.66930770335 0.27931683121 0.36977856708 0.6246373617 
0.34764756132 0.6431486835 0.59955941956 0.39507295967 0.39658176365 0.59728363898 0.57278655217 0.41244470353 0.40847471547 
0.5578782785 0.54052913436 0.51055031319 0.4765102434 0.41237973288 0.34789711301 0.27048676249 0.20580902259 0.14556293251 
0.10761362412 0.074091086144 0.040692722342 0.0061634501743 0.0081024257831 0.0069124009806 0.0057961610474 0.0090009393531 0.0077658830491 
0.0066057897443 0.0055251762788 0.010189555856 0.0087967105467 0.0075307863454 0.0077193067842 0.010149867229 0.0087137488529 0.0069923938974 
0.0082262061444 0.0096211334867 0.011823051563 0.01022694822 0.0087432386646 0.0063712794676 0.0075733622979 0.008956827962 0.010498316815 
0.012080045391 0.010424051581 0.0088752109704 0.0084004230546 0.0099290884032 0.011586973805 0.012420610388 0.010716739188 0.0091122079752 
0.0094628024393 0.011105469512 0.0010995144682 0.00082725812168 0.001046783022 0.0051209547774 0.0042178013085 0.004786548066 0.0039184667057 
0.0032131283376 0.0026671287796 0.0045547728027 0.0037241966893 0.0030503197522 0.0025257748488 0.0021150261229 0.0055777879159 0.0065730317261 
0.003565026244 0.0041917788484 0.0024646386306 0.002057441569 0.0017244240112 0.0049583704927 0.0058969275056 0.0026827297528 0.0031747044697 
0.0020566602236 0.0017198500727 0.0037497620418 0.0044610758122 0.0053369164268 0.0020875286184 0.0017442041571 0.0014593957175 0.0020571364531 
0.0024381331904 0.0028906339426 0.0019163259836 0.0021246610887 0.0017765139174 0.0014869214427 0.0022796437299 0.0015313842059 0.0018271092096 
0.002181650092 0.00081414197085 0.00071865159053 0.00055260465216 0.00066063773714 0.00092605922518 0.00041461279324 3.9945900923e-05 2.8953268089e-05 
2.3526135243e-05 8.9134251313e-06 6.2966799447e-06 1.3779802591e-06 5.3028141473e-07 2.8243373725e-07 5.0366357202e-08 1.7696766581e-08 4.4434928361e-09 
8.9764625216e-10 2.3575936814e-10 3.849063336e-11 2.369610371e-11 4.4419771961e-12 4.629816624e-12 8.776610006e-13 5.7288660745e-13 3.3170144515e-18 
6.3159728852e-08 1.5690545412e-06 0.99999790596 0.99999467866 1 0.99999892763 0.99999629707 0.99999998997 0.99999825284 
0.99999598892 0.99419139353 0.94196417132 0.77198588227 0.94945759564 0.81113147907 0.88515570522 0.71145525384 0.87956637404 
0.82124632783 0.80616370241 0.75962470611 0.84577357236 0.72980556276 0.69527869793 0.80769444778 0.77402668118 0.66483724685 
0.631902321 0.72144089222 0.66952635258 0.57062777757 0.50679005324 0.5738713462 0.48389763958 0.41217671414 0.31931076352 
0.23023258554 0.1036369477 0.063085068722 0.058302905909 0.025031885227 0.034654384264 0.0019837130991 0.0014246467072 0.0080864268574 
0.018384769487 0.003677906712 0.0023203463574 0.0011418045851 0.00060384806385 0.00092789828627 0.00038821111551 0.00043651750079 0.00026057103749 
9.7512682292e-05 4.9354311001e-05 2.1041747423e-05 3.5766243747e-05 1.0785912997e-05 1.3661345684e-05 4.330804483e-06 2.607835985e-06 1.1037826295e-06 
1.5728374757e-06 6.3970735531e-07 2.3840045215e-07 7.825582894e-08 7.8581991104e-08 2.7934470355e-08 1.8992719888e-08 8.8684979248e-09 3.6260837048e-09 
2.0846306382e-09 7.6508725828e-10 1.141546134e-10 1.3527749417e-10 2.0697960078e-11 9.3154472742e-12 2.7214489079e-12 1.3183289006e-12 5.825841016e-18 
8.0537420437e-18 2.0661129427e-07 2.175842771e-07 3.9797120955e-06 0.99999913551 0.99999705406 0.99999500654 0.99999970805 1 
1 0.99999999432 0.99999994406 0.99742262445 0.98481987903 0.98549432314 0.99541716361 0.94353283702 0.9791047124 
0.95675250933 0.9439601885 0.91021534488 0.96904106181 0.94649075183 0.88399083069 0.92109210609 0.88748032012 0.93263191669 
0.90009513482 0.84507279895 0.80419249705 0.84116686563 0.78112891817 0.72403108325 0.64757195814 0.6599799013 0.51031560477 
0.35148533458 0.40742728335 0.27581277119 0.17058463796 0.11358578178 0.16794008636 0.097569826447 0.073319443421 0.038756853225 
0.05073427922 0.020529570642 0.024613388894 0.0097476615849 0.0050320994492 0.011031311347 0.0044516346282 0.0020970349385 0.0017310174101 
0.00068061112417 0.00042270750213 0.00027699522472 0.00014040767845 5.1661795612e-05 1.7415478958e-05 5.0092295272e-06 1.7850563529e-06 5.6017305779e-07 
3.6216115072e-07 2.1602390525e-07 1.0419354354e-07 3.59722985e-08 1.1433544399e-08 3.5213319712e-09 1.081835829e-09 5.3395036088e-10 3.0261487596e-10 
1.0233690034e-10 1.7997829789e-11 1.5388349873e-11 3.6823684865e-12 2.3839817049e-12 5.014495113e-13 1.973551881e-08 1.1940472746e-06 3.1663400445e-06 
0.071675655889 0.99999952079 0.99999551064 1 1 0.9999999999 0.99999999981 0.99999999776 0.9998080039 