# vtk DataFile Version 4.1
Generated by LAMMPS
ASCII
DATASET POLYDATA
POINTS 1324 float
0.0532537 0.00317947 0 0.0535746 0.0420342 0 0.00270809 0.0379727 0 
0.0988594 2.02846e-08 0 0.098951 0.0401944 0 0.137751 4.6081e-08 0 
0.138743 0.0406642 0 0.172726 4.82989e-08 0 0.177993 0.0426497 0 
0.199999 3.83612e-08 0 0.200001 2.75922e-08 0 0.200001 5.69053e-08 0 
0.245647 5.12508e-08 0 0.281126 6.31559e-08 0 0.319814 0.0492337 0 
0.350245 0.053503 0 0.320451 1.22461e-07 0 0.379371 0.047251 0 
0.360305 1.15858e-07 0 0.400274 1.952e-07 0 0.411125 0.0452807 0 
0.444271 0.0425356 0 0.440284 9.75076e-08 0 0.47944 0.0414621 0 
0.480282 9.10094e-08 0 0.520347 9.0929e-08 0 0.515925 0.0404101 0 
0.553633 0.0396975 0 0.560354 1.66636e-08 0 0.59228 0.0390953 0 
0.600368 3.10854e-08 0 0.64038 5.38008e-08 0 0.631707 0.0386195 0 
0.671712 0.0379814 0 0.680394 5.46467e-08 0 0.713865 0.0378746 0 
0.720422 4.65667e-08 0 0.760391 4.09509e-08 0 0.758358 0.0386249 0 
0.801791 0.0391398 0 0.800417 4.11134e-08 0 0.843612 0.0390464 0 
0.840406 3.13658e-08 0 0.880405 7.7434e-09 0 0.885855 0.0392432 0 
0.92637 0.0394733 0 0.920642 2.45399e-08 0 0.967012 0.0395298 0 
0.960726 8.16346e-09 0 1.00731 0.0400641 0 1.0011 4.88221e-08 0 
1.04124 8.527e-08 0 1.04706 0.0403857 0 1.08643 0.0409647 0 
1.08176 5.99969e-08 0 1.12519 0.0412966 0 1.12186 3.46381e-08 0 
1.16272 7.69366e-08 0 1.16353 0.0417495 0 1.20133 0.0413005 0 
1.20299 3.32683e-08 0 1.23923 0.0407983 0 1.24669 2.27014e-09 0 
1.28882 1.38878e-08 0 1.27758 0.0396055 0 1.3169 0.0388045 0 
1.33371 2.20201e-08 0 1.35686 0.0382394 0 1.37488 1.48119e-08 0 
1.39786 0.0375394 0 1.42015 5.57728e-09 0 1.43858 0.0376018 0 
1.46048 3.69458e-09 0 1.48086 0.0365591 0 1.50697 9.18729e-09 0 
1.52215 0.037067 0 1.54678 1.63636e-08 0 1.5654 0.0356571 0 
1.59465 8.08437e-08 0 1.60759 0.0366218 0 1.63475 2.62645e-08 0 
1.65115 0.0351762 0 1.6827 8.05866e-09 0 1.69442 0.0364508 0 
1.72322 2.23246e-08 0 1.73816 0.0343022 0 1.77192 9.23843e-09 0 
1.78222 0.0355125 0 1.81211 2.751e-08 0 1.82845 0.0320343 0 
1.86749 2.04497e-09 0 1.87228 0.0349064 0 1.90675 5.20021e-09 0 
1.91792 0.0336751 0 1.96059 0.00261993 0 1.96236 0.0380441 0 
1.99988 0.00248219 0 0.0545125 0.0810595 0 0.00877229 0.0749819 0 
0.0112853 0.113468 0 0.0992274 0.0802033 0 0.139277 0.0805148 0 
0.225053 0.0588774 0 0.179554 0.0808718 0 0.224673 0.0919008 0 
0.268294 0.0625839 0 0.269182 0.107076 0 0.302326 0.0746061 0 
0.34438 0.111633 0 0.373795 0.0974516 0 0.406921 0.095674 0 
0.439942 0.0895551 0 0.474522 0.0874923 0 0.50996 0.0848372 0 
0.546491 0.0830487 0 0.583966 0.0814161 0 0.622362 0.0800614 0 
0.661566 0.0785404 0 0.701177 0.0767749 0 0.68428 0.116966 0 
0.725425 0.114933 0 0.740984 0.0748517 0 0.76844 0.113203 0 
0.782042 0.0733939 0 0.809557 0.111555 0 0.827953 0.0747718 0 
0.854717 0.11194 0 0.871329 0.0751228 0 0.897411 0.112233 0 
0.917001 0.0774009 0 0.94334 0.114897 0 0.958416 0.0779564 0 
0.998553 0.0789505 0 1.03797 0.0795853 0 1.07681 0.0806859 0 
1.11499 0.08165 0 1.15254 0.0827563 0 1.18948 0.0829461 0 
1.22615 0.0828342 0 1.26261 0.0807855 0 1.29973 0.079595 0 
1.33732 0.0774329 0 1.37641 0.0766361 0 1.41541 0.0756657 0 
1.43673 0.11665 0 1.45647 0.0750042 0 1.4754 0.115808 0 
1.4961 0.0742362 0 1.51479 0.114206 0 1.53876 0.0739877 0 
1.5545 0.113492 0 1.57876 0.0730023 0 1.59483 0.112186 0 
1.62226 0.073126 0 1.63561 0.11164 0 1.66283 0.0719379 0 
1.67642 0.109893 0 1.70783 0.0724366 0 1.71866 0.109578 0 
1.7488 0.0706722 0 1.76059 0.10741 0 1.79523 0.0703286 0 
1.80306 0.107644 0 1.8357 0.0687301 0 1.84411 0.106225 0 
1.8815 0.0705021 0 1.88683 0.108123 0 1.92227 0.0705263 0 
1.92739 0.108462 0 1.96679 0.0746785 0 1.97109 0.112061 0 
0.0571526 0.16012 0 0.0555642 0.120311 0 0.0132604 0.152604 0 
0.0994392 0.120138 0 0.0995687 0.16007 0 0.139526 0.120291 0 
0.139615 0.160149 0 0.179669 0.120431 0 0.179679 0.16022 0 
0.222578 0.128597 0 0.221164 0.166061 0 0.267132 0.1431 0 
0.30996 0.119115 0 0.310263 0.156007 0 0.349899 0.152404 0 
0.386513 0.14607 0 0.421089 0.137331 0 0.457094 0.134251 0 
0.467572 0.174938 0 0.493193 0.129901 0 0.505771 0.171166 0 
0.530039 0.127013 0 0.544107 0.16753 0 0.567472 0.124215 0 
0.582848 0.164349 0 0.605632 0.121815 0 0.621885 0.161188 0 
0.64451 0.119396 0 0.661789 0.157861 0 0.701732 0.154489 0 
0.743153 0.150684 0 0.78527 0.14884 0 0.828928 0.146763 0 
0.873052 0.147491 0 0.918924 0.148765 0 0.962216 0.151292 0 
0.988108 0.118422 0 1.00636 0.155208 0 1.02994 0.120608 0 
1.04733 0.159764 0 1.0694 0.122984 0 1.08697 0.163664 0 
1.1075 0.12488 0 1.12475 0.167599 0 1.14462 0.126969 0 
1.16146 0.170449 0 1.18093 0.128099 0 1.19738 0.172867 0 
1.2168 0.128763 0 1.23283 0.171279 0 1.25238 0.126619 0 
1.26848 0.170737 0 1.28829 0.125386 0 1.30406 0.166387 0 
1.32442 0.122049 0 1.34024 0.16392 0 1.36122 0.120214 0 
1.39866 0.118669 0 1.37686 0.161893 0 1.41382 0.158652 0 
1.45146 0.157437 0 1.48944 0.15489 0 1.52797 0.1537 0 
1.56708 0.152012 0 1.60642 0.150705 0 1.647 0.149691 0 
1.68695 0.148064 0 1.7289 0.147357 0 1.76875 0.145852 0 
1.81029 0.145877 0 1.85015 0.145067 0 1.89167 0.146666 0 
1.93193 0.147275 0 1.97309 0.150471 0 0.0576395 0.199809 0 
0.0164124 0.234135 0 0.0148359 0.19204 0 0.0996389 0.200023 0 
0.139653 0.200066 0 0.179676 0.200116 0 0.219908 0.204258 0 
0.264372 0.179005 0 0.261099 0.214947 0 0.307085 0.191702 0 
0.307609 0.227124 0 0.351933 0.190995 0 0.349378 0.228026 0 
0.391615 0.185919 0 0.39441 0.224513 0 0.42983 0.180351 0 
0.434683 0.219702 0 0.474442 0.214859 0 0.513909 0.210746 0 
0.553686 0.206795 0 0.593308 0.203258 0 0.634063 0.199278 0 
0.674041 0.195607 0 0.685233 0.232838 0 0.716434 0.191164 0 
0.725063 0.228646 0 0.756783 0.187674 0 0.769346 0.223911 0 
0.801117 0.184397 0 0.809661 0.221162 0 0.842661 0.182873 0 
0.855868 0.218194 0 0.889032 0.182373 0 0.897423 0.218749 0 
0.932569 0.185025 0 0.944549 0.220559 0 0.979225 0.1893 0 
0.987103 0.226359 0 1.02225 0.19586 0 1.03193 0.233639 0 
1.06464 0.202051 0 1.10343 0.208385 0 1.14045 0.2132 0 
1.17641 0.217908 0 1.21192 0.217681 0 1.2475 0.21834 0 
1.28294 0.213405 0 1.31894 0.210603 0 1.35532 0.208176 0 
1.39182 0.203939 0 1.42895 0.202378 0 1.46621 0.199027 0 
1.50396 0.197595 0 1.54192 0.19503 0 1.58028 0.193461 0 
1.58934 0.233875 0 1.61889 0.191354 0 1.6277 0.232236 0 
1.65783 0.18962 0 1.66613 0.229748 0 1.69698 0.187429 0 
1.70469 0.228919 0 1.7365 0.186755 0 1.74325 0.226593 0 
1.776 0.185169 0 1.78197 0.226807 0 1.81568 0.185336 0 
1.82074 0.225136 0 1.85528 0.184593 0 1.8596 0.22628 0 
1.89518 0.18604 0 1.89865 0.225898 0 1.93494 0.186824 0 
1.93773 0.227963 0 1.97501 0.189651 0 1.97708 0.229232 0 
0.0579816 0.239604 0 0.0582162 0.279508 0 0.0172184 0.274261 0 
0.0996816 0.239994 0 0.0997094 0.279981 0 0.139675 0.240023 0 
0.139692 0.280003 0 0.179671 0.24007 0 0.179678 0.280044 0 
0.219268 0.243034 0 0.219343 0.282085 0 0.259574 0.288617 0 
0.261567 0.251626 0 0.30298 0.26205 0 0.351593 0.264348 0 
0.39233 0.261734 0 0.43774 0.25786 0 0.478259 0.253611 0 
0.48143 0.291314 0 0.520179 0.249473 0 0.522011 0.287635 0 
0.560119 0.245573 0 0.565334 0.283579 0 0.602273 0.241497 0 
0.605309 0.279663 0 0.642165 0.2375 0 0.648434 0.275105 0 
0.688124 0.270638 0 0.732013 0.265563 0 0.77176 0.261034 0 
0.817771 0.257177 0 0.857968 0.254566 0 0.857402 0.291397 0 
0.9056 0.254333 0 0.898349 0.289834 0 0.946639 0.256917 0 
0.945976 0.292698 0 0.993094 0.262942 0 1.03461 0.272563 0 
1.07231 0.242783 0 1.07576 0.284003 0 1.11085 0.250906 0 
1.14703 0.259096 0 1.18268 0.26152 0 1.21816 0.264019 0 
1.25386 0.259588 0 1.29003 0.256732 0 1.32662 0.253844 0 
1.36331 0.249034 0 1.36747 0.291775 0 1.40059 0.246899 0 
1.40553 0.287643 0 1.43787 0.243031 0 1.44377 0.285398 0 
1.47554 0.241303 0 1.48193 0.282207 0 1.51322 0.238108 0 
1.52017 0.280428 0 1.55122 0.236397 0 1.55829 0.277612 0 
1.59646 0.275987 0 1.6345 0.273049 0 1.67262 0.27232 0 
1.71054 0.269202 0 1.74862 0.269612 0 1.78658 0.266866 0 
1.8247 0.268131 0 1.86284 0.266317 0 1.90115 0.268333 0 
1.9396 0.267895 0 1.9781 0.271173 0 0.0584005 0.319534 0 
0.0179241 0.315698 0 0.0997276 0.319978 0 0.139705 0.319993 0 
0.179685 0.320023 0 0.219173 0.321411 0 0.26018 0.326176 0 
0.301165 0.333201 0 0.304701 0.297633 0 0.346041 0.299851 0 
0.349107 0.335523 0 0.395164 0.298224 0 0.389651 0.334048 0 
0.435717 0.295013 0 0.438415 0.33165 0 0.478847 0.328569 0 
0.524231 0.325313 0 0.564673 0.321834 0 0.607932 0.317963 0 
0.647826 0.31373 0 0.690264 0.309133 0 0.687401 0.348263 0 
0.648006 0.352771 0 0.729787 0.304095 0 0.728606 0.343583 0 
0.767525 0.338081 0 0.772624 0.299069 0 0.812518 0.294588 0 
0.808227 0.333784 0 0.84781 0.329043 0 0.890101 0.327242 0 
0.931137 0.326757 0 0.976196 0.33272 0 0.989125 0.298771 0 
1.01826 0.34362 0 1.03219 0.30976 0 1.11269 0.295904 0 
1.07068 0.32401 0 1.10673 0.338702 0 1.14812 0.303613 0 
1.14136 0.349246 0 1.18305 0.309511 0 1.17689 0.35009 0 
1.21862 0.304828 0 1.21245 0.352008 0 1.25509 0.304396 0 
1.24915 0.345803 0 1.29195 0.299337 0 1.2898 0.341696 0 
1.32956 0.295059 0 1.32851 0.336884 0 1.36816 0.332699 0 
1.40722 0.329511 0 1.44636 0.326021 0 1.48527 0.323932 0 
1.52397 0.320943 0 1.56256 0.31949 0 1.60084 0.316592 0 
1.63905 0.315936 0 1.67691 0.312629 0 1.7148 0.313077 0 
1.7524 0.309802 0 1.79009 0.311092 0 1.79239 0.351404 0 
1.82765 0.308376 0 1.86535 0.310333 0 1.86702 0.350719 0 
1.90311 0.308613 0 1.94097 0.311445 0 1.97915 0.311633 0 
1.94195 0.351883 0 0.0585326 0.359665 0 0.0586349 0.39989 0 
0.0184465 0.356431 0 0.0188227 0.398066 0 0.0997391 0.35998 0 
0.0997468 0.399985 0 0.139715 0.359991 0 0.13972 0.399992 0 
0.179695 0.360013 0 0.179697 0.400004 0 0.219294 0.360858 0 
0.21914 0.400476 0 0.258866 0.364081 0 0.259602 0.402339 0 
0.299543 0.405626 0 0.303067 0.369389 0 0.343869 0.371024 0 
0.347262 0.406777 0 0.387561 0.405753 0 0.393034 0.369942 0 
0.433358 0.367873 0 0.435932 0.404306 0 0.476201 0.402449 0 
0.480819 0.365604 0 0.521206 0.362871 0 0.521861 0.400561 0 
[...]
POINT_DATA 1324
FIELD FieldData 9
id 1 1324 int
50 100 99 1176 1179 1177 1180 1178 1181 
4 5 6 7 8 57 58 9 59 
10 11 60 61 12 62 13 14 63 
64 15 65 16 17 66 67 18 68 
19 20 69 70 21 71 22 23 72 
73 24 74 25 75 26 27 76 77 
28 78 29 30 79 80 31 81 32 
33 82 83 34 84 35 85 36 86 
37 87 38 88 39 89 40 90 41 
91 42 92 43 93 44 94 45 95 
46 96 47 97 48 98 49 150 149 
199 1182 1183 54 1184 104 55 105 56 
107 108 109 110 111 112 113 114 115 
116 117 166 167 118 168 119 169 120 
170 121 171 122 172 123 124 125 126 
127 128 129 130 131 132 133 134 135 
185 136 186 137 187 138 188 139 189 
140 190 141 191 142 192 143 193 144 
194 145 195 146 196 147 197 148 198 
250 200 249 1185 1188 1186 1189 1187 1190 
154 204 155 106 156 157 158 159 160 
210 161 211 162 212 163 213 164 214 
165 215 216 217 218 219 220 221 222 
173 223 174 224 175 225 176 226 177 
227 178 228 179 229 180 230 181 231 
182 232 183 184 233 234 235 236 237 
238 239 240 241 242 243 244 245 246 
247 248 300 349 299 1191 1192 1193 254 
205 255 206 256 207 257 208 258 209 
259 260 261 262 263 264 265 315 266 
316 267 317 268 318 269 319 270 320 
271 321 272 322 273 323 274 275 276 
277 278 279 280 281 282 283 284 285 
286 287 288 338 289 339 290 340 291 
341 292 342 293 343 294 344 295 345 
296 346 297 347 298 348 350 400 399 
1194 1197 1195 1198 1196 1199 304 354 355 
305 306 307 308 309 310 360 311 361 
312 362 313 363 314 364 365 366 367 
368 369 419 370 420 371 421 372 373 
324 374 325 326 327 328 329 330 331 
332 382 333 383 334 384 335 385 336 
386 337 387 388 389 390 391 392 393 
394 395 396 397 398 450 449 1200 1201 
1202 404 405 406 356 357 407 358 408 
359 409 410 411 412 413 414 415 465 
464 416 466 467 417 418 468 469 470 
471 472 422 473 423 375 424 425 376 
426 377 427 378 428 379 429 380 430 
381 431 432 433 434 435 436 437 438 
439 440 441 442 443 493 444 445 495 
446 447 448 497 500 550 499 549 1203 
1206 1204 1207 1205 1208 454 504 455 505 
506 456 457 507 508 458 459 509 510 
460 461 511 462 512 463 513 514 515 
516 517 518 519 520 571 521 522 523 
573 574 474 524 525 475 476 477 478 
479 480 481 482 532 483 533 484 534 
485 535 486 536 487 537 488 538 489 
539 490 540 491 541 492 542 543 494 
544 545 496 546 547 498 548 600 599 
1209 1210 1211 554 555 556 557 558 559 
560 561 562 563 564 565 566 567 616 
618 568 569 620 570 622 572 624 575 
576 577 526 527 578 528 579 529 580 
530 531 581 582 583 584 585 586 587 
588 589 590 591 592 593 594 595 596 
597 598 650 700 649 699 1212 1215 1213 
1216 1214 1217 604 654 605 655 606 656 
607 657 608 658 659 609 610 660 611 
661 612 662 663 613 614 664 615 665 
666 617 667 668 619 669 621 671 623 
673 625 675 1249 1252 1253 1254 1259 1260 
1261 1262 1268 1269 1270 1273 1279 1280 1283 
1284 1285 1290 1291 1292 1296 1297 1298 1299 
1303 1304 1305 1309 1310 1311 1316 1317 1318 
1320 1321 627 677 1250 1251 1255 1256 1257 
1258 1263 1264 1265 1266 1267 1271 1272 1274 
1275 1276 1277 1278 1281 1282 1286 1287 1288 
1289 1293 1294 1295 1300 1301 1302 1306 1307 
1308 1312 1313 1314 1315 1319 1322 1323 1324 
628 678 629 679 630 680 631 681 632 
682 633 683 634 684 635 685 636 686 
637 687 638 688 639 689 640 690 641 
691 642 692 643 693 644 694 645 695 
646 696 647 697 648 698 750 749 1218 
1219 1220 704 705 706 707 757 708 758 
709 759 710 711 712 713 714 715 716 
717 718 719 670 720 721 672 722 674 
723 724 725 726 727 776 777 728 778 
729 779 730 780 731 732 733 734 735 
736 737 738 739 740 741 742 743 744 
745 746 747 748 800 850 799 849 1221 
1224 1222 1225 1223 1226 754 804 755 805 
756 806 807 808 809 760 810 761 811 
762 812 763 813 764 814 765 815 766 
767 768 769 770 771 772 773 774 824 
775 825 826 827 828 829 830 781 831 
782 832 783 833 784 834 835 785 786 
836 787 837 838 788 789 790 791 792 
793 794 795 796 797 798 900 899 1227 
1228 1229 854 855 856 906 857 907 858 
908 859 909 860 910 861 862 863 864 
865 816 866 817 867 818 868 819 869 
820 821 822 872 823 873 874 875 876 
926 877 927 878 928 879 929 880 930 
881 882 883 884 885 886 887 888 839 
889 840 890 841 891 842 892 843 893 
894 844 845 895 846 847 896 897 848 
898 950 1000 949 1230 1233 1231 1234 1232 
1235 904 954 905 955 956 957 958 959 
960 911 961 912 962 913 963 964 914 
965 915 916 917 918 919 870 871 920 
921 922 923 974 924 925 975 976 977 
978 979 980 981 931 982 932 983 933 
984 934 985 935 936 986 937 938 939 
940 941 942 943 944 945 946 947 948 
1050 999 1049 1236 1237 1238 1004 1005 1055 
1006 1056 1007 1057 1058 1008 1009 1010 1059 
1011 1012 1013 1014 1015 1016 966 1017 967 
1018 968 1019 969 1020 970 1021 971 1022 
972 1023 973 1024 1025 1026 1027 1028 1029 
1030 1031 1032 1033 1034 1035 1036 1037 987 
988 1038 1039 989 1040 990 1041 991 992 
1042 1043 993 994 1044 995 1045 996 1046 
997 1047 998 1048 1100 1150 1099 1239 1242 
1240 1243 1241 1244 1054 1104 1105 1106 1107 
1108 1109 1110 1060 1111 1061 1112 1062 1113 
1063 1114 1064 1115 1065 1116 1066 1067 1068 
1069 1070 1071 1072 1123 1073 1124 1074 1125 
1075 1126 1076 1127 1077 1128 1078 1129 1079 
1130 1080 1131 1081 1132 1082 1133 1083 1084 
1085 1086 1087 1088 1089 1090 1091 1092 1093 
1094 1095 1096 1097 1098 753 1149 801 1245 
1246 1247 1154 1155 1156 1157 1158 1159 1160 
1161 1162 1163 1164 1165 1166 1117 1167 1168 
1118 1169 1119 1120 1170 1171 1121 1172 1122 
1173 1174 1175 1153 1152 1151 1103 1102 1101 
1053 1052 1051 1134 1003 1135 1136 1002 1001 
1137 953 1138 1139 952 1140 951 903 1141 
1142 902 1143 901 1144 853 852 1145 1146 
851 1147 803 1148 802 1 1248 676 626 
752 751 703 701 702 653 651 652 603 
601 602 553 551 552 503 501 502 453 
451 452 403 402 353 401 352 303 351 
302 253 301 252 251 203 202 201 153 
152 151 103 102 101 53 52 51 3 
2 
C_[0] 1 1324 double
0 0 0 0 0 3.0036696706e-24 9.5426761104e-25 1.8353459008e-19 9.9080858042e-18 
1.2677976875e-18 3.8033051853e-18 3.8032541384e-18 1.1142363207e-13 2.5684940804e-13 6.911336356e-12 7.4061626974e-12 3.2496637872e-13 4.1078482978e-12 
2.7789175494e-13 1.6892424283e-13 2.5234449133e-12 1.2356852518e-12 8.5965976765e-14 5.6606784444e-13 3.6498786834e-14 1.3863341064e-14 2.173921537e-13 
7.2915451755e-14 4.6646876636e-15 2.112163379e-14 1.3821419784e-15 3.5946971588e-16 5.2682901545e-15 1.1260433332e-15 8.266475311e-17 2.002884433e-16 
1.6674825242e-17 2.9850360814e-18 2.9059199997e-17 3.7703103101e-18 4.6524146406e-19 4.3990160886e-19 6.0998007736e-20 7.1532919206e-21 4.9491795793e-20 
5.2711703805e-21 7.7456434526e-22 5.2837045686e-22 8.0819920603e-23 4.9682631196e-23 7.809550512e-24 7.1637258641e-25 4.6005446098e-24 4.1454263383e-25 
6.1004037715e-26 3.62982314e-26 5.0575789615e-27 3.8528145809e-28 3.2336196548e-27 2.8119317124e-28 3.0216047622e-29 2.3398160361e-29 1.9499465098e-30 
1.2822225141e-31 1.7615506168e-30 1.2139055038e-31 6.6671886119e-33 7.5647921694e-33 4.0074951434e-34 4.0942219351e-34 1.6589256512e-35 2.2138620434e-35 
9.2411391284e-37 9.2325015007e-37 2.8393273909e-38 4.3540616369e-38 1.4703292035e-39 1.4033896529e-39 3.267777324e-41 5.6038126279e-41 1.4701482858e-42 
1.5068773634e-42 2.76371046e-44 4.9592983895e-44 1.0530960851e-45 1.0777075981e-45 1.6270079519e-47 3.0308347678e-47 5.7261663594e-49 5.0274961165e-49 
6.2498281083e-51 1.4639031402e-50 4.1858187113e-56 6.0845596013e-56 0 1.7919883512e-59 0 0 0 
0 0 6.0986494337e-20 2.0920892052e-12 1.378113085e-16 1.9752560879e-11 1.0666864841e-11 1.5374635573e-10 2.7021995574e-11 
2.6647102155e-10 9.8109374284e-11 5.652391602e-11 2.4327482781e-11 1.0778483702e-11 3.9185942919e-12 1.2871876169e-12 3.6211050165e-13 8.783447325e-14 
1.7980857033e-14 3.1435182004e-15 5.4448991293e-14 7.7487577169e-15 4.7435768132e-16 8.6639567582e-16 6.0509830584e-17 9.9825511897e-17 6.35899737e-18 
8.6688755633e-18 6.2557557156e-19 8.2301140331e-19 5.6016263857e-20 6.2679111903e-20 5.2644478043e-21 5.1766308517e-22 4.8135155162e-23 4.3330999947e-24 
4.0368932101e-25 3.8474132012e-26 3.5376403122e-27 3.1520879858e-28 2.5517657629e-29 1.9836635826e-30 1.357875975e-31 8.5025708441e-33 5.0183064425e-34 
4.2208903293e-34 2.4156013122e-35 2.3149561853e-35 1.2317044322e-36 1.0927881848e-36 4.6755929963e-38 5.0475851457e-38 2.0405537465e-39 2.041068696e-39 
6.4963595467e-41 7.793290378e-41 2.3810333555e-42 2.7005314052e-42 5.8716046732e-44 8.2758752927e-44 1.7762619681e-45 2.2382994043e-45 3.4110285518e-47 
6.8511522863e-47 1.0603873594e-48 2.1205978078e-48 2.6072351563e-50 6.5988966543e-50 1.5235118769e-55 3.9235626277e-55 2.6411332792e-58 1.0477413581e-57 
0 0 0 0 0 3.8624093612e-18 7.9163638087e-17 1.7781787306e-15 2.067048645e-14 
2.0810466949e-10 2.2545576311e-09 1.5104070219e-09 4.6225313278e-10 4.5992442497e-09 3.2338336109e-09 1.6400611238e-09 6.1467158639e-10 2.570904477e-10 
2.2494426616e-09 8.6322830046e-11 6.6550740873e-10 2.6799778307e-11 1.6814364608e-10 7.163486209e-12 3.7038004748e-11 1.6593836389e-12 7.0365579051e-12 
3.2841120939e-13 1.1119432765e-12 1.5818235682e-13 1.7512186677e-14 1.9736820714e-15 1.6664353365e-16 1.5858558784e-17 1.1165805596e-18 9.9244821876e-20 
5.150645712e-21 7.0126635367e-21 4.2306495701e-22 6.66023815e-22 4.0645900995e-23 5.9784453269e-23 4.0362504517e-24 5.775258587e-24 4.0064327619e-25 
5.6323090038e-25 3.8501355134e-26 5.3749549928e-26 3.5960237691e-27 4.4748553837e-27 2.9646199473e-28 3.7040937999e-28 2.4114146988e-29 2.5518449037e-29 
1.6828884415e-30 1.8360716119e-30 1.1795215904e-31 7.4241482877e-33 1.1852664208e-31 7.1230871369e-33 4.2280508476e-34 2.201243712e-35 1.1419313757e-36 
5.1764076624e-38 2.3083242443e-39 8.6994706129e-41 3.3382973891e-42 1.0573166908e-43 3.8659228277e-45 1.274452435e-46 4.5870991763e-48 1.5055157463e-49 
9.071666451e-55 7.3417275836e-57 0 0 0 0 1.1891626577e-15 2.3209681372e-13 2.2599271803e-08 
1.3508672429e-08 1.2225300311e-07 4.1723127421e-08 3.4965268678e-07 3.4417774763e-08 3.163772103e-07 1.6917894316e-08 1.5749033199e-07 6.854596628e-09 
5.6939804583e-08 1.7693214512e-08 4.4753934123e-09 9.7700075597e-10 1.8032460751e-10 2.7690006404e-11 3.8456020542e-12 1.1955120484e-11 4.1663593453e-13 
1.3019979321e-12 4.6451995004e-14 1.1236773682e-13 3.8927664841e-15 1.0366462125e-14 3.7235742252e-16 7.2699139844e-16 2.590116112e-17 6.0360356062e-17 
2.2419093786e-18 3.8845229686e-18 1.4375857403e-19 3.1244541595e-19 1.2162578423e-20 2.0859400989e-20 8.5067390575e-22 8.3103902908e-23 8.0281945537e-24 
7.9665017272e-25 6.7065763294e-26 5.5653160717e-27 3.7819674544e-28 2.6951579561e-29 1.7218039068e-30 1.0573982326e-31 6.4209965104e-33 3.5129937537e-34 
1.9495191069e-35 9.6812153011e-37 4.8015979656e-38 4.7478189442e-38 2.16567224e-39 2.2522970545e-39 9.5176753245e-41 1.0054296879e-40 3.8885802104e-42 
4.5649398968e-42 1.5712632405e-43 1.9296424853e-43 5.9589109537e-45 8.4786686101e-45 2.3318674657e-46 3.3679097588e-46 8.5232086547e-48 1.4217380114e-47 
3.2009034245e-49 5.2846180049e-49 1.9686478619e-54 2.8275257213e-54 2.4661110997e-56 4.2977545846e-56 0 0 0 
0 0 1.4635793457e-14 1.3887570043e-13 2.3350943793e-12 2.2832975134e-11 2.3267495603e-07 2.2228880074e-06 9.4332366647e-06 
1.0807928964e-06 2.77245821e-06 2.5013615618e-06 1.2466462248e-06 4.2892022287e-07 1.1547757991e-07 6.6794399053e-07 2.6358709643e-08 1.3380130003e-07 
4.966397553e-09 2.1622774984e-08 7.7484609852e-10 3.1132705608e-09 1.0703861909e-10 3.6115661129e-10 4.0626130393e-11 3.6285299537e-12 3.412498788e-13 
2.4336887445e-14 2.0449725295e-15 5.7008186121e-15 1.2773338865e-16 4.4850914341e-16 1.0124111174e-17 2.6570297268e-17 6.437193699e-19 4.9012940676e-20 
1.7352730211e-21 3.5160095421e-21 1.4744631483e-22 1.5323217807e-23 1.3334682395e-24 1.1178648277e-25 7.8235133217e-27 5.4453917395e-28 3.4961985267e-29 
2.1279819296e-30 3.1991538469e-30 1.2481440988e-31 1.6672895257e-31 6.8830162168e-33 8.482789847e-33 3.7964989085e-34 4.2125822753e-34 1.9441976285e-35 
2.0716749876e-35 9.9739199024e-37 1.0009984515e-36 4.8333903317e-38 2.2747780816e-39 1.0836176392e-40 4.9471976769e-42 2.3343854348e-43 1.01510235e-44 
4.6597968438e-46 1.908481858e-47 1.3974332505e-52 2.7083310796e-54 0 0 0 0 1.3599654007e-12 
2.0326606312e-10 2.0773683454e-05 7.8869408195e-05 0.00014895122157 2.0676842789e-05 1.8616239013e-05 0.00011657036774 8.3855109596e-06 5.2806905618e-05 
2.7698364178e-06 1.4774804843e-05 3.4074226795e-06 5.8010240048e-07 8.7572246798e-08 1.074926132e-08 1.2473796919e-09 1.2282961323e-10 3.7295723795e-10 
3.6342385608e-09 1.2006845803e-11 3.3522753555e-11 3.147405445e-12 9.7358841064e-13 8.4573041712e-14 2.5815590078e-13 2.2455635746e-14 1.56465495e-15 
1.2049651758e-16 7.0542945166e-18 1.90233849e-18 4.8282022682e-19 1.2872952201e-19 3.195578472e-22 1.0186701088e-20 8.7872940621e-22 3.1014857891e-23 
8.1813237407e-23 2.7733251584e-24 6.5764888469e-24 2.083725745e-25 5.2299059563e-25 1.4953254923e-26 3.7021896211e-26 9.9554689446e-28 1.7561324509e-27 
5.741593118e-29 9.0399985349e-29 4.3171818893e-30 2.0179978244e-31 9.511215704e-33 4.3937830547e-34 2.0776079515e-35 9.7243316798e-37 4.6212467733e-38 
2.204140677e-39 1.0479233079e-40 5.0717274613e-42 2.3596977508e-43 1.1385038062e-44 1.0604039466e-44 5.0674187189e-46 2.3677053208e-47 2.3637982617e-47 
1.6285567072e-52 3.658751829e-54 0 3.7203787463e-54 0 0 0 0 0 
0 1.1458950505e-11 1.0189506691e-10 1.7862835121e-09 1.5170411793e-08 0.00017932857496 0.0015346973484 0.00064051718471 0.0047664702669 
0.0059500166329 0.00097833281803 0.00070630777929 0.0033688211315 0.001195757922 0.00025929373445 7.2511538582e-05 0.00025428307122 4.7902028567e-05 
1.344134114e-05 2.2367232613e-06 6.4947771287e-06 2.8780081221e-07 8.4757972066e-07 3.4857616805e-08 9.232785534e-08 9.8142914604e-09 9.860480058e-10 
9.6533575544e-11 9.1248358113e-12 8.70255755e-13 7.5878431246e-14 6.4586912002e-15 5.8518794699e-15 4.8393673913e-16 3.8424905823e-17 2.2859507326e-18 
8.1482847962e-17 1.0584927692e-17 3.8124843528e-20 1.9935739987e-19 1.7334865133e-20 3.5864250892e-21 3.4619616679e-22 2.9393204501e-23 2.1852277317e-24 
5.9710872883e-26 2.9255860733e-27 9.7895354113e-29 4.3010551193e-30 4.0704965865e-30 1.9104838438e-31 1.5976420072e-31 8.2735620926e-33 7.0950514054e-33 
3.8169200331e-34 2.998310268e-34 1.7322827815e-35 1.408945443e-35 8.2508649114e-37 6.4652827113e-37 3.8959966337e-38 3.1489675255e-38 1.890765648e-39 
1.5223574957e-39 9.1880915317e-41 7.6425149896e-41 4.4865193296e-42 3.8018465644e-42 2.2164001231e-43 1.9204186885e-43 9.6086247016e-45 5.1836249767e-46 
4.7312620004e-46 2.3091093909e-47 1.8229247213e-52 1.7463460612e-52 4.0781909491e-54 0 0 4.9892719664e-08 2.6360272649e-08 
5.7490514137e-08 5.8434642994e-08 1.9702426992e-07 0.013005919217 0.032438963435 0.030085804293 0.014393444494 0.0036681453124 0.00079435792894 
0.00011770613424 1.6923682543e-05 1.9741450086e-06 2.2049347259e-07 2.4504455169e-08 2.5816762257e-09 2.8557846206e-10 3.1642143164e-11 6.9055139257e-10 
1.1243938223e-11 3.6548869568e-12 4.306768141e-13 2.18531395e-13 4.9842369874e-14 5.0160901602e-15 6.7823507536e-16 1.9074772787e-16 2.2278806445e-18 
3.3883211715e-19 2.3408835988e-20 9.3210610749e-22 5.2468592275e-23 1.3155986824e-24 3.8870713453e-24 1.3771388439e-25 1.3470644774e-25 4.4661114247e-27 
3.0177499819e-27 1.37619927e-28 1.2424410496e-28 5.4891433257e-30 1.7725128928e-31 6.6449293021e-33 2.9386456695e-34 1.2379578267e-35 5.9378798772e-37 
2.7845572056e-38 1.3894542588e-39 6.892671388e-41 3.5515410115e-42 1.800843495e-43 9.2521945207e-45 4.6625889696e-46 2.3090747678e-47 1.8202284504e-52 
4.0047290863e-54 0 3.7305273277e-06 0.99999617007 2.8264642081e-06 0.99999328117 3.7548189645e-06 0.99999619585 3.8363716734e-06 
0.99999616253 3.9948451953e-06 0.99999589891 0.11980447291 0.8556540694 0.18638720552 0.60946057152 0.11928203967 0.25630788316 
0.038494079357 0.078507149643 0.0096529569393 0.015576733161 0.0029244394938 0.0016019604266 0.00025952318208 0.0003923517289 3.2543460277e-05 
5.3059324485e-05 3.9626734572e-06 6.2629989689e-06 7.0486003571e-07 4.6542236244e-07 5.1318435789e-08 8.1632995244e-08 5.9696114434e-09 9.1512957146e-09 
1.1529228512e-09 9.0832627492e-11 1.3697903562e-10 2.0607981379e-11 1.7606419902e-12 2.5250903851e-12 4.0767124405e-14 5.4508625761e-14 1.2395568141e-15 
1.6882403126e-15 3.8116433832e-17 5.4295947931e-17 2.2245768625e-18 4.3521412926e-18 3.0505722907e-18 2.1779152424e-18 6.3731721757e-18 4.3506727896e-18 
3.0210987493e-18 2.1442954071e-18 9.5448951344e-18 6.6181940266e-18 4.4318016038e-18 3.5093214656e-18 9.9767835948e-18 6.9042124136e-18 3.2631829675e-18 
4.5572476773e-18 6.4376437495e-18 1.4285793087e-17 1.0393451899e-17 7.2030431374e-18 3.0451197264e-18 4.2593507305e-18 6.0542337217e-18 8.5945570363e-18 
1.4751431553e-17 1.0770534206e-17 7.4965892487e-18 5.7433650471e-18 8.3006612307e-18 1.1634216719e-17 1.5132165094e-17 1.1102111727e-17 7.7800118842e-18 
8.0465600053e-18 1.1379225438e-17 4.5638582891e-20 7.3807039738e-20 1.7052863524e-18 1.3147201774e-18 1.6840442495e-18 1.3093989839e-18 9.9005945334e-19 
7.2925850904e-19 1.6598452717e-18 1.2980487026e-18 9.8956242283e-19 7.3853899496e-19 5.4809865834e-19 1.9951337542e-18 2.6515858266e-18 9.7741022427e-19 
1.3730614806e-18 7.4825925781e-19 5.69229286e-19 4.3427925106e-19 1.8775525082e-18 2.4853227139e-18 6.7060715473e-19 9.2172400228e-19 5.9331805823e-19 
4.5348677939e-19 1.2836824842e-18 1.752112702e-18 2.3211595235e-18 6.1475674236e-19 4.7068828908e-19 3.4586178913e-19 5.1017369234e-19 6.5846775001e-19 
8.7377312787e-19 5.0521962321e-19 6.3233023347e-19 4.8530479265e-19 3.5764853086e-19 6.541221526e-19 3.6768610469e-19 4.9690321806e-19 6.4555821419e-19 
3.633086766e-21 5.5263131173e-21 6.8257102511e-26 2.0849067956e-25 5.3490933019e-27 1.1788447992e-26 2.3862065143e-28 5.2296719656e-28 7.4842053206e-30 
1.6001908839e-29 3.0211660878e-31 4.8071451429e-31 9.7870554924e-33 1.7543909674e-32 3.5989356426e-34 6.2315422754e-34 1.6164182761e-35 2.4701128258e-35 
6.9617317868e-37 1.1771605369e-36 3.3911598893e-38 5.4053645449e-38 1.6423070075e-39 2.6584563074e-39 8.3379029481e-41 1.3229072626e-40 4.2244047096e-42 
6.7179527599e-42 2.187432513e-43 3.4168616411e-43 1.1165826967e-44 1.7388833343e-44 5.6880981453e-46 8.7268254733e-46 2.8367482748e-47 4.2954074836e-47 
2.2280116814e-52 3.3384854876e-52 3.8873271547e-09 1.2530740411e-07 8.9846358238e-07 3.1589728563e-06 0.99999986922 0.99999604878 0.99999994247 
0.99999993979 0.99999969638 0.96153778888 0.76490046121 0.35367289015 0.097467603038 0.11524148136 0.022497690099 0.02308343424 
0.0035284243361 0.0043383889601 0.0005489394205 6.6388341221e-05 7.8659287835e-06 8.8285193296e-07 9.3032840872e-08 1.039551192e-08 1.0944748214e-09 
1.3807747845e-10 1.4638525919e-11 2.03707633e-12 4.3059134649e-13 2.1712102636e-13 2.9059992217e-14 1.0143489451e-14 3.1335390218e-15 3.8758497016e-16 
3.7733308504e-16 4.7732960187e-17 7.8268785217e-18 9.8899060468e-19 6.8641138662e-20 6.0810341093e-21 3.3817073787e-22 6.7982653281e-24 2.7917004747e-23 
9.4295981649e-25 1.007501447e-24 2.738419558e-26 2.4198159308e-26 6.8769163169e-28 2.4148236698e-29 8.702892135e-31 2.7783710419e-32 1.1449629413e-33 
4.9517499484e-35 2.1721704943e-36 1.0438137676e-37 4.9765732735e-39 2.4341252491e-40 1.2081753041e-41 6.0214335311e-43 2.9703697386e-44 1.4625012371e-45 
6.9450679013e-47 5.3227181677e-52 1.2837164442e-07 3.971450309e-06 0.99999993018 0.99999993555 0.99999607341 0.99999607391 1 
1 0.99999999829 0.99999999835 0.99999987388 0.99999989158 0.97354061112 0.97503823417 0.79546189787 0.79886743066 
0.36784742484 0.380698292 0.1098925304 0.02601603436 0.0041345992204 0.00058013564172 0.00064743796683 7.7634658109e-05 7.9292698695e-05 
8.7926933576e-06 9.2827535871e-06 9.2880096521e-07 1.0263735295e-06 9.9385916168e-08 1.0183058413e-07 9.7864900496e-09 1.0205563949e-08 1.0214228814e-09 
9.4345531792e-11 9.8863729046e-12 8.5814628031e-13 7.9239750128e-14 6.0138846673e-15 4.5789735495e-16 2.4938278173e-17 1.6301105445e-18 4.7904470036e-19 
1.2025402586e-19 3.6856311265e-20 3.037759945e-21 2.5240849391e-22 1.9461394567e-23 6.1485503846e-25 3.0196296767e-26 9.7717075914e-28 1.204989396e-27 