# vtk DataFile Version 4.1
Generated by LAMMPS
ASCII
DATASET POLYDATA
POINTS 1324 float
0.101406 0.0525907 0 0.154173 0.0331895 0 0.1878 0.0281159 0 
0.204156 0.0149363 0 0.200616 1.65881e-07 0 0.201077 3.21219e-08 0 
0.202709 2.12655e-07 0 0.222937 2.98142e-08 0 0.203427 1.15791e-07 0 
0.20288 9.30539e-08 0 0.22315 4.72957e-08 0 0.202063 1.50055e-07 0 
0.217365 2.5419e-08 0 0.223181 4.7273e-08 0 0.203085 1.10056e-07 0 
0.202941 1.01316e-07 0 0.267862 0.0545676 0 0.277905 8.06233e-09 0 
0.287773 1.34802e-07 0 0.327178 5.00351e-09 0 0.364296 0.0567392 0 
0.362785 8.13766e-08 0 0.401944 4.5307e-09 0 0.398791 0.0582891 0 
0.436987 0.0537913 0 0.44154 6.07131e-08 0 0.501472 0.0547879 0 
0.481405 7.14141e-08 0 0.521335 4.44024e-08 0 0.556849 0.052509 0 
0.561334 3.92631e-08 0 0.610554 0.0434155 0 0.645266 0.0484676 0 
0.601405 2.70855e-07 0 0.641506 1.9306e-08 0 0.669271 0.0514163 0 
0.68149 2.5916e-08 0 0.711299 0.045819 0 0.738069 0.0540603 0 
0.760103 0.054395 0 0.721579 9.49524e-09 0 0.761655 2.39895e-08 0 
0.78061 0.0473656 0 0.804426 0.0462357 0 0.801841 2.6189e-08 0 
0.829684 0.0462582 0 0.854552 0.0380908 0 0.841961 3.43946e-08 0 
0.885979 0.0195328 0 0.882532 2.86686e-08 0 0.922425 9.69678e-09 0 
0.977237 0.0113018 0 0.962309 2.18556e-08 0 1.00328 5.5708e-08 0 
1.0428 3.87128e-10 0 1.07809 0.0564027 0 1.08318 7.27243e-09 0 
1.13118 0.0509894 0 1.15287 0.0569006 0 1.12327 2.03486e-08 0 
1.16397 1.23248e-08 0 1.18467 0.0585241 0 1.21383 0.0463034 0 
1.2041 2.1738e-08 0 1.24735 0.0537628 0 1.27278 0.0550647 0 
1.24768 1.60226e-08 0 1.2897 4.01084e-08 0 1.29876 0.0509468 0 
1.32406 0.0507244 0 1.3491 0.0502943 0 1.3346 1.67039e-08 0 
1.37385 0.0520205 0 1.3978 0.0503501 0 1.37575 2.81573e-08 0 
1.42251 0.0483124 0 1.44658 0.0425263 0 1.42286 1.90322e-08 0 
1.47377 0.0423357 0 1.50132 0.0368797 0 1.47695 2.34281e-08 0 
1.53221 0.0333818 0 1.53498 6.12584e-09 0 1.57117 0.0310968 0 
1.58282 6.81048e-09 0 1.61564 0.00752624 0 1.64115 0.0558739 0 
1.67563 0.0174937 0 1.65672 2.56409e-09 0 1.696 0.0586409 0 
1.72252 0.0482172 0 1.71245 2.11227e-08 0 1.73754 0.0159368 0 
1.76909 0.0374836 0 1.77683 0.00527902 0 1.79824 0.0357518 0 
1.8072 5.23038e-09 0 1.85066 0.0297781 0 1.87864 0.036445 0 
1.88212 3.28746e-09 0 1.90715 0.0319006 0 1.91394 0.00722639 0 
1.95398 0.00118881 0 1.97389 0.0191574 0 1.98585 4.86016e-09 0 
0.0289773 0.114035 0 0.0198101 0.0685915 0 0.0649607 0.0643261 0 
0.0591485 0.105223 0 0.0907121 0.0955702 0 0.124991 0.087861 0 
0.170889 0.0944099 0 0.17588 0.0642509 0 0.224094 0.0657307 0 
0.217263 0.0928601 0 0.270343 0.101856 0 0.27752 0.0763137 0 
0.321683 0.111452 0 0.321356 0.058916 0 0.356306 0.0991883 0 
0.409826 0.11145 0 0.445789 0.106831 0 0.471744 0.0621147 0 
0.484934 0.116712 0 0.536594 0.0682769 0 0.59254 0.0710694 0 
0.637136 0.0979827 0 0.682638 0.103681 0 0.701343 0.0639648 0 
0.736146 0.111274 0 0.778898 0.107607 0 0.809008 0.10661 0 
0.846847 0.097532 0 0.867223 0.103877 0 0.894425 0.0851565 0 
0.912205 0.0754014 0 0.935321 0.07036 0 0.957698 0.0660988 0 
0.981438 0.0675994 0 1.00577 0.0676812 0 1.02972 0.0650398 0 
1.05514 0.0649863 0 1.10525 0.0590012 0 1.20973 0.0707281 0 
1.2757 0.113378 0 1.32976 0.104484 0 1.38086 0.112105 0 
1.40963 0.116801 0 1.43478 0.109028 0 1.45937 0.106525 0 
1.48311 0.112251 0 1.50617 0.110796 0 1.52475 0.0947287 0 
1.54775 0.0964141 0 1.56967 0.10129 0 1.5914 0.0976512 0 
1.61206 0.0899104 0 1.62033 0.0659468 0 1.66709 0.0597209 0 
1.75083 0.112149 0 1.7764 0.111675 0 1.7991 0.105599 0 
1.82389 0.107827 0 1.84836 0.10302 0 1.87476 0.103473 0 
1.90193 0.0989573 0 1.93086 0.0943587 0 1.96048 0.088757 0 
1.98987 0.0788343 0 0.0406066 0.168043 0 0.00996695 0.172653 0 
0.0687008 0.156289 0 0.0993691 0.148109 0 0.13004 0.141438 0 
0.164711 0.140615 0 0.200172 0.136911 0 0.238027 0.136443 0 
0.280298 0.140771 0 0.324898 0.149514 0 0.370355 0.16292 0 
0.384286 0.131513 0 0.444608 0.149237 0 0.500685 0.155532 0 
0.528429 0.118712 0 0.544558 0.169965 0 0.567934 0.119285 0 
0.588266 0.156504 0 0.613957 0.125265 0 0.640993 0.172244 0 
0.666135 0.141805 0 0.704505 0.142376 0 0.749476 0.145146 0 
0.796813 0.152314 0 0.835483 0.145828 0 0.864542 0.172668 0 
0.894049 0.139099 0 0.921761 0.1576 0 0.953434 0.127363 0 
0.964796 0.156764 0 0.991458 0.132679 0 1.01769 0.128853 0 
1.043 0.129801 0 1.0686 0.128638 0 1.09446 0.125156 0 
1.11845 0.118579 0 1.16845 0.122394 0 1.14387 0.121346 0 
1.19378 0.122796 0 1.22047 0.123566 0 1.24737 0.12376 0 
1.2479 0.175154 0 1.27559 0.167391 0 1.30553 0.174376 0 
1.31183 0.123576 0 1.33706 0.17301 0 1.35311 0.122936 0 
1.36959 0.170108 0 1.43536 0.156883 0 1.46263 0.175235 0 
1.53072 0.166907 0 1.57368 0.162334 0 1.61481 0.157134 0 
1.64697 0.146968 0 1.67444 0.134448 0 1.70138 0.127409 0 
1.72767 0.122107 0 1.74714 0.175101 0 1.77341 0.167938 0 
1.84365 0.161368 0 1.87054 0.166948 0 1.89273 0.154514 0 
1.91866 0.148468 0 1.94565 0.142292 0 1.97199 0.132431 0 
1.99912 0.121204 0 0.0505983 0.222421 0 0.0187158 0.22552 0 
0.0755403 0.204173 0 0.108102 0.20228 0 0.136093 0.190116 0 
0.16884 0.187875 0 0.193842 0.229463 0 0.200648 0.181335 0 
0.227174 0.233263 0 0.235502 0.181856 0 0.258814 0.224917 0 
0.271483 0.180537 0 0.292898 0.235156 0 0.308562 0.188727 0 
0.328722 0.232347 0 0.34746 0.193085 0 0.388836 0.20606 0 
0.416926 0.177016 0 0.433302 0.215425 0 0.463768 0.18102 0 
0.472037 0.225433 0 0.507059 0.195951 0 0.517796 0.235105 0 
0.554026 0.20856 0 0.597546 0.192715 0 0.606201 0.226133 0 
0.656269 0.203792 0 0.700528 0.182105 0 0.709712 0.21291 0 
0.751374 0.183659 0 0.77041 0.209535 0 0.811741 0.18619 0 
0.829914 0.209225 0 0.848694 0.233669 0 0.892133 0.191145 0 
0.894156 0.221327 0 0.944096 0.191216 0 0.963951 0.213861 0 
1.00671 0.210181 0 1.01517 0.182365 0 1.05526 0.184097 0 
1.07059 0.213397 0 1.09526 0.179188 0 1.11496 0.219575 0 
1.1257 0.179297 0 1.15815 0.180588 0 1.1665 0.220912 0 
1.18807 0.177652 0 1.21886 0.180266 0 1.2019 0.22586 0 
1.24022 0.219378 0 1.27432 0.222417 0 1.31077 0.218608 0 
1.34434 0.214627 0 1.40312 0.17815 0 1.38034 0.220148 0 
1.41667 0.212314 0 1.45843 0.210738 0 1.50209 0.17657 0 
1.49723 0.214282 0 1.53992 0.218711 0 1.56528 0.189809 0 
1.58506 0.225015 0 1.60992 0.191453 0 1.63618 0.226567 0 
1.64991 0.187446 0 1.67889 0.227159 0 1.6858 0.182457 0 
1.7158 0.224779 0 1.71748 0.177124 0 1.74984 0.227065 0 
1.79859 0.178615 0 1.78049 0.233172 0 1.82402 0.177295 0 
1.83487 0.232584 0 1.88169 0.218595 0 1.91161 0.223182 0 
1.92993 0.201243 0 1.95874 0.197497 0 1.98659 0.190307 0 
0.045346 0.279261 0 0.0122655 0.281791 0 0.0714753 0.2593 0 
0.105303 0.260371 0 0.131302 0.240829 0 0.165094 0.244318 0 
0.178412 0.283262 0 0.211932 0.288359 0 0.240274 0.272652 0 
0.273875 0.285285 0 0.304651 0.274805 0 0.339515 0.289493 0 
0.363863 0.243989 0 0.373417 0.282896 0 0.403028 0.24633 0 
0.440441 0.261474 0 0.484717 0.26346 0 0.523491 0.277533 0 
0.560899 0.24803 0 0.572832 0.28252 0 0.61383 0.258838 0 
0.660086 0.236642 0 0.669579 0.268586 0 0.713908 0.271331 0 
0.725022 0.242275 0 0.775726 0.239786 0 0.784871 0.267565 0 
0.829604 0.259754 0 0.838152 0.287909 0 0.887189 0.274914 0 
0.905711 0.248074 0 0.95026 0.241612 0 0.961285 0.26832 0 
1.00683 0.264932 0 1.0207 0.236612 0 1.01354 0.292396 0 
1.06572 0.243712 0 1.07886 0.269425 0 1.1201 0.277482 0 
1.13363 0.248523 0 1.17403 0.258771 0 1.19113 0.285069 0 
1.23283 0.257664 0 1.22996 0.293118 0 1.2721 0.263747 0 
1.29131 0.291769 0 1.31614 0.253642 0 1.35374 0.26471 0 
1.38102 0.290961 0 1.39302 0.252305 0 1.41974 0.292271 0 
1.43282 0.252123 0 1.46497 0.285393 0 1.47212 0.248178 0 
1.50286 0.291479 0 1.51533 0.255395 0 1.55451 0.255522 0 
1.59718 0.260179 0 1.63738 0.260398 0 1.67697 0.265957 0 
1.71569 0.266679 0 1.74828 0.277198 0 1.77985 0.284238 0 
1.80915 0.241601 0 1.80945 0.292745 0 1.86303 0.240623 0 
1.88664 0.280155 0 1.91739 0.284076 0 1.93544 0.25788 0 
1.96558 0.254729 0 1.99357 0.24308 0 0.0545956 0.317924 0 
0.0256004 0.338333 0 0.0884886 0.317858 0 0.116957 0.298981 0 
0.150708 0.301814 0 0.156892 0.340269 0 0.190591 0.345299 0 
0.218487 0.32666 0 0.250941 0.33722 0 0.280453 0.323302 0 
0.313958 0.337635 0 0.344404 0.326874 0 0.380611 0.341447 0 
0.409035 0.297651 0 0.413963 0.333289 0 0.450691 0.297053 0 
0.452359 0.346888 0 0.487418 0.310122 0 0.491658 0.344666 0 
0.532907 0.311876 0 0.570272 0.323771 0 0.613299 0.329158 0 
0.616312 0.295122 0 0.659688 0.30008 0 0.667644 0.333216 0 
0.707085 0.33182 0 0.72299 0.301741 0 0.764732 0.295025 0 
0.775495 0.323651 0 0.818461 0.314838 0 0.822715 0.34519 0 
0.869312 0.330573 0 0.890942 0.302674 0 0.939512 0.294435 0 
0.939151 0.323961 0 0.912612 0.348175 0 0.977948 0.345184 0 
0.986907 0.316939 0 1.0567 0.295793 0 1.02316 0.346582 0 
1.05749 0.323794 0 1.10298 0.327802 0 1.12908 0.305607 0 
1.17177 0.312557 0 1.16903 0.340307 0 1.21388 0.348718 0 
1.23669 0.323506 0 1.27807 0.32309 0 1.32987 0.299857 0 
1.33685 0.329772 0 1.37805 0.327714 0 1.42723 0.3249 0 
1.46764 0.324091 0 1.51445 0.325596 0 1.55078 0.294291 0 
1.54972 0.332018 0 1.58566 0.299522 0 1.59441 0.337585 0 
1.6284 0.344511 0 1.6274 0.297998 0 1.66134 0.310325 0 
1.66903 0.343353 0 1.70012 0.303995 0 1.72972 0.324649 0 
1.76451 0.326287 0 1.78945 0.345727 0 1.81887 0.348626 0 
1.83726 0.295666 0 1.86571 0.302155 0 1.87074 0.344665 0 
1.90314 0.348017 0 1.92611 0.324277 0 1.95712 0.315887 0 
1.98559 0.300933 0 1.99278 0.344626 0 0.0282022 0.377304 0 
0.0626412 0.375752 0 0.0936098 0.356255 0 0.127768 0.35908 0 
0.129984 0.39684 0 0.163692 0.402392 0 0.19298 0.383671 0 
0.225479 0.392298 0 0.254392 0.375505 0 0.285923 0.388723 0 
0.31577 0.37541 0 0.350078 0.388142 0 0.380985 0.377514 0 
0.418831 0.389976 0 0.451015 0.38125 0 0.491877 0.393773 0 
0.527451 0.391162 0 0.530465 0.357126 0 0.5711 0.358251 0 
0.573091 0.399789 0 0.608846 0.399323 0 0.618099 0.365962 0 
0.656333 0.365532 0 0.666891 0.398092 0 0.703757 0.394216 0 
0.718742 0.362419 0 0.756341 0.354124 0 0.766379 0.38425 0 
[...]
POINT_DATA 1324
FIELD FieldData 9
id 1 1324 int
190 142 143 94 95 46 47 48 49 
50 1176 1177 1178 4 5 6 144 7 
8 9 96 10 11 97 147 12 99 
13 14 1179 15 57 59 16 17 60 
18 62 63 64 19 20 65 66 21 
67 68 22 69 23 24 70 25 26 
27 117 28 71 119 29 30 72 73 
31 74 75 32 33 76 77 78 34 
79 80 35 81 82 36 83 84 37 
85 38 86 39 87 134 88 40 136 
137 41 89 138 90 139 42 43 91 
92 140 141 44 93 45 236 188 189 
237 238 239 240 191 192 241 242 193 
243 145 194 195 146 98 196 100 1181 
1180 55 61 54 58 56 108 107 109 
110 111 112 113 114 115 116 118 120 
167 121 122 123 124 125 126 127 128 
129 130 131 132 133 135 178 179 180 
181 182 183 184 185 186 187 284 283 
285 286 287 288 289 290 291 292 293 
244 245 246 197 247 148 198 149 199 
150 1182 1183 1184 104 1187 105 154 106 
155 156 157 158 159 160 161 163 162 
164 165 166 212 213 214 168 215 169 
216 170 218 171 172 173 174 175 176 
177 225 226 229 230 231 232 233 234 
235 333 332 334 335 336 337 387 338 
388 339 389 340 390 341 391 342 343 
294 344 295 345 296 346 297 248 298 
249 200 250 1185 1188 1186 1189 1192 1190 
1193 204 254 255 205 206 256 207 257 
208 209 258 210 211 259 260 261 262 
263 217 264 265 266 219 267 268 220 
269 221 270 222 271 223 272 224 273 
227 274 228 276 278 279 280 281 282 
382 381 383 384 385 386 436 437 438 
439 440 441 392 442 393 394 395 396 
347 397 348 299 349 350 300 1191 1194 
1195 1198 1199 1196 304 354 355 305 405 
306 356 357 307 308 358 309 359 310 
360 311 312 362 313 363 314 364 315 
365 316 317 318 319 320 321 322 323 
275 324 277 327 328 329 330 331 432 
431 433 434 435 485 486 487 488 489 
490 491 492 443 493 444 494 445 495 
446 447 448 398 399 449 450 400 1197 
1200 1201 1204 1205 1202 404 454 504 505 
455 406 506 456 457 407 408 458 459 
409 410 361 411 412 413 414 415 366 
416 367 417 418 368 369 419 370 371 
372 373 374 325 326 376 377 378 379 
380 430 481 482 483 484 534 535 536 
537 538 539 540 541 542 543 544 545 
546 496 497 547 548 498 499 549 550 
500 1203 1206 1207 1211 1208 554 605 555 
606 556 607 557 608 507 558 508 559 
509 560 510 460 511 461 512 462 513 
463 514 464 515 465 516 466 467 468 
469 470 420 421 422 423 375 426 427 
428 429 480 531 581 532 582 533 583 
584 585 586 587 588 589 590 591 592 
593 594 595 646 596 597 648 598 599 
649 650 600 1209 1212 1213 1210 1214 604 
667 659 671 625 609 610 611 613 612 
615 561 614 562 563 564 619 618 565 
566 567 568 517 571 518 519 520 521 
471 472 473 474 475 424 425 476 477 
478 529 479 530 632 631 633 634 635 
636 637 638 639 640 641 691 642 643 
693 644 694 645 695 696 697 647 698 
699 700 1215 1216 1217 654 655 656 657 
658 1249 1252 1253 1254 1259 1260 1261 1262 
1268 1269 1270 1273 1279 1280 1283 1284 1285 
1290 1291 1292 1296 1297 1298 1299 1303 1304 
1305 1309 1310 1311 1316 1317 1318 1320 1321 
576 627 677 1250 1251 1255 1256 1257 1258 
1263 1264 1265 1266 1267 1271 1272 1274 1275 
1276 1277 1278 1281 1282 1286 1287 1288 1289 
1293 1294 1295 1300 1301 1302 1306 1307 1308 
1312 1313 1314 1315 1319 1322 1323 1324 726 
575 577 628 678 727 725 621 617 616 
674 672 620 623 624 622 569 570 572 
573 574 522 523 524 525 526 527 578 
528 579 629 630 580 682 732 681 683 
684 685 736 686 687 738 688 689 740 
690 741 742 692 743 744 745 746 747 
797 748 798 799 749 750 800 1221 1218 
1219 1222 1223 1220 704 705 706 661 660 
663 675 662 665 711 664 712 666 713 
669 714 668 670 715 673 716 717 718 
767 719 720 768 721 769 722 723 771 
724 772 773 774 824 775 825 776 826 
777 728 778 729 679 730 680 782 731 
783 733 784 734 785 735 786 787 737 
789 739 790 791 792 793 794 795 846 
796 847 848 849 850 900 1227 1224 1225 
1226 754 804 755 707 756 757 708 758 
709 710 759 760 809 810 761 811 762 
812 763 764 813 814 765 815 766 816 
817 770 818 819 820 821 823 822 873 
874 875 876 827 828 779 829 780 781 
832 833 834 835 836 837 838 788 839 
840 841 842 843 844 894 895 845 896 
897 948 898 899 949 950 1230 1228 1231 
1229 1232 854 805 855 806 856 807 857 
808 858 859 860 861 862 863 864 865 
866 916 867 868 869 920 870 921 871 
872 922 923 924 925 926 927 877 878 
879 880 830 831 883 882 884 885 886 
887 888 889 890 891 942 892 943 893 
944 945 946 997 947 998 999 1049 1050 
1000 1233 1236 1234 1237 1235 1238 904 1004 
954 955 905 906 956 957 907 958 908 
959 909 960 910 961 911 962 912 963 
913 964 965 914 966 915 967 968 917 
918 969 919 970 971 972 973 974 975 
976 977 978 928 929 930 931 881 932 
934 984 933 935 936 937 938 939 990 
940 991 941 992 993 994 1045 995 1046 
996 1047 1098 1048 1099 1150 1100 1242 1239 
1243 1244 1240 1104 1241 1105 1054 1055 1005 
1056 1006 1007 1008 1009 1010 1011 1012 1013 
1014 1015 1016 1017 1018 1070 1019 1071 1020 
1072 1021 1073 1022 1074 1023 1075 1024 1025 
1026 1027 1028 1029 1030 979 980 981 982 
983 985 1037 986 1038 987 1039 988 1040 
989 1041 1092 1042 1093 1043 1094 1044 1095 
1146 1096 1147 1097 1148 1149 1246 1155 1154 
1158 1156 1108 1107 1109 1106 1057 1058 1059 
1060 1061 1062 1063 1064 1065 1066 1067 1068 
1121 1069 1122 1123 1124 1125 1126 1127 1128 
1076 1077 1078 1079 1080 1081 1082 1083 1031 
1084 1032 1033 1034 1035 1036 1089 1088 1141 
1090 1091 853 1143 1144 852 851 1145 676 
803 802 801 753 1245 1247 1157 1159 1160 
1161 1162 1163 1164 1165 1166 1167 1168 1110 
1111 1112 1113 1114 1115 1116 1117 1118 1171 
1119 1172 1120 1173 1174 1175 1153 1152 1151 
1103 1102 1101 1053 1052 1003 1129 1130 1131 
1132 1133 1134 1135 1136 1137 951 1085 1139 
1086 1087 902 101 1142 901 53 52 51 
3 2 1 1248 626 751 703 752 701 
702 653 651 652 603 601 602 553 551 
552 503 501 502 453 1169 452 451 1170 
403 402 353 401 352 303 351 302 253 
301 252 251 1051 203 202 1002 201 1001 
153 953 152 952 151 1138 103 903 1140 
102 
C_[0] 1 1324 double
0 2.087839331e-14 1.0156454381e-13 1.3837119433e-09 2.423037562e-09 2.5134209729e-09 2.622556736e-09 4.2090788412e-09 2.6749798374e-09 
2.6364995408e-09 4.2414424798e-09 2.5773683953e-09 3.4975797123e-09 4.2478376285e-09 2.6503758175e-09 2.6399243366e-09 3.5399675582e-08 4.8332572184e-08 
7.3172841319e-08 1.9728860939e-07 7.8124911102e-07 4.4660897243e-07 9.5409547541e-07 1.6797328963e-06 3.1295635126e-06 1.9065046185e-06 9.0973920218e-06 
3.4943607513e-06 6.3172366706e-06 1.8250044751e-05 1.1098703639e-05 3.1678528404e-05 5.2493413171e-05 1.8476829284e-05 2.8212739886e-05 7.0087697523e-05 
4.1660532166e-05 9.2812679271e-05 0.00013149033136 0.0001587115572 5.692043446e-05 7.2229226364e-05 0.00015731775991 0.00017767888564 8.3884607662e-05 
0.00020288810357 0.00018919154674 8.6355180901e-05 0.00014091541324 7.9091116702e-05 8.2621825847e-05 0.00013547306426 8.7527640882e-05 7.7672436769e-05 
5.909056423e-05 0.00024462983764 4.4664155365e-05 0.00012027628325 0.00011313583117 3.1026112309e-05 1.8465401543e-05 7.4905422169e-05 3.5531952387e-05 
1.06883623e-05 2.6639145066e-05 1.5937296279e-05 5.0673366866e-06 2.3163825696e-06 8.7544203873e-06 5.1486279862e-06 3.249269757e-06 9.6775344757e-07 
1.9642345644e-06 1.0216300976e-06 4.1104796883e-07 5.6126250085e-07 2.5462348637e-07 1.3537618777e-07 1.3037221033e-07 4.3816109678e-08 3.3626404281e-08 
1.9049503158e-08 5.9148499219e-09 5.9104631241e-09 1.4093961225e-09 8.0872968052e-10 2.6495529428e-09 2.6789971339e-10 2.1956661732e-10 5.2147657246e-10 
1.6889355765e-10 4.7452121864e-11 3.362696281e-11 2.5969649363e-11 6.4448613309e-12 1.0245360661e-11 2.1365667554e-12 1.1606950633e-12 1.0617352324e-12 
1.2027581245e-13 7.4148950551e-18 2.4309724351e-18 5.0428638351e-20 0 0 0 0 0 
0 0 0 5.0148935738e-14 3.9121327088e-14 8.2412863972e-09 1.4871738253e-08 2.1223099928e-07 1.0250948814e-07 
1.2890565433e-06 2.8328553879e-07 2.1393782044e-06 8.6322498087e-06 1.2489428055e-05 6.6042641958e-06 3.4887736492e-05 2.0879430795e-05 4.2378151598e-05 
0.00013776753529 0.00026467104741 0.00011487039913 0.00057046749142 0.00074706546371 0.00091811078666 0.00093038879095 0.0012442803672 0.00094655748807 
0.00079609112834 0.00067331687237 0.00056660393589 0.00054705539321 0.00052198507378 0.00044895859726 0.00038393664891 0.0002014046004 8.4664308039e-05 
0.00011921059509 2.9537811828e-05 1.3530465748e-05 7.6042340642e-06 3.4965556262e-06 2.03679715e-06 1.2636053192e-06 5.9016887412e-07 2.5064158364e-07 
1.3696175752e-07 7.8738398104e-08 4.0200464488e-08 1.8253936794e-08 7.1184852484e-09 1.2797436967e-09 2.4739691245e-09 1.141830326e-09 5.0032939706e-10 
2.2563103567e-10 9.2681076037e-11 3.7927848792e-11 2.8665008935e-16 4.5645950149e-17 3.6245074027e-20 0 0 0 
0 0 1.1176945657e-15 1.4062872181e-13 7.888105597e-10 3.0022276089e-07 1.4482127681e-06 6.0983145949e-06 2.2718849005e-05 
1.0683948714e-05 4.7943763512e-05 0.00014000023236 7.3611835676e-05 0.00037932891507 0.00012157131943 0.00043584938204 0.00024860280983 0.0011593109626 
0.00061915730268 0.00098706814737 0.0015447641057 0.0025302570374 0.0027327163354 0.0069210887346 0.003735779213 0.0064608145649 0.0034089793383 
0.0063423748794 0.003567702972 0.0028783611403 0.0025254442769 0.0020768918622 0.0015724160458 0.001124185806 0.00063043657096 0.00087462129148 
0.00045397314177 0.00033351759263 0.00022844173795 0.00068401988172 0.00038867186194 0.00025453958149 7.255838162e-05 0.00014113957409 3.1785877074e-05 
7.4335182165e-05 1.3379475622e-05 1.180458846e-05 2.2116731005e-06 7.0703793452e-07 2.3062236752e-07 8.3086829186e-08 3.236113296e-08 1.3373830319e-08 
5.7837082028e-09 7.7203316491e-09 3.058103375e-09 2.6616475037e-10 1.1131265244e-10 4.1575132011e-11 3.2692132337e-16 5.1815489707e-17 1.228858921e-18 
0 0 0 0 0 9.7759139708e-15 2.1072777985e-12 7.6822906251e-11 2.0853404508e-08 
7.6910734474e-06 1.6973450946e-06 2.1238065038e-05 5.5559285857e-06 7.2228978869e-05 1.89295628e-05 0.00014483698511 4.8276303347e-05 0.0001475416693 
8.1501004466e-05 0.00035780398263 0.00017755905578 0.00082597085247 0.00052850609159 0.0018630497346 0.0012783343346 0.0013267405587 0.0035263995207 
0.003058089909 0.0026308617557 0.0062675860593 0.0042047575508 0.0088554567399 0.006329278198 0.012200535492 0.023187520031 0.011663322693 
0.021424637527 0.012504344833 0.020067790085 0.016322117395 0.0094581079737 0.0079848141306 0.011566674887 0.0052811859603 0.0085562072481 
0.0038472833431 0.0026747262874 0.0047499349692 0.0016918839274 0.0011462931322 0.0031556734499 0.0015873815969 0.00098786347282 0.0004942071793 
0.00025463879372 4.4143161151e-05 0.00013898874966 5.9740207501e-05 2.3825841024e-05 5.3128152003e-06 1.0771210391e-05 3.9511391008e-06 1.3526577278e-06 
1.4313077755e-06 4.5670194816e-07 3.8224409074e-07 1.4400216026e-07 1.1806147821e-07 5.107363177e-08 3.895762917e-08 1.9293438052e-08 1.4507088377e-08 
1.5543087396e-09 5.9464399365e-09 6.3598238386e-10 9.3518332565e-10 1.4149342064e-10 1.0826052059e-15 2.7213311152e-16 1.1602458702e-17 0 
0 0 0 0 0 1.8016581056e-11 1.9497397637e-10 2.0743852531e-05 6.1795188781e-05 
0.00025958018698 0.00039797758875 0.001166228322 0.00037795529571 0.0016169891543 0.00070162653287 0.0017416592488 0.0029848309599 0.0064958156661 
0.0041741849515 0.011484331474 0.0088916356186 0.0074510278017 0.017150415198 0.025198336709 0.014271702174 0.018114462345 0.035342487374 
0.035920703581 0.063077960947 0.057002179021 0.037116548769 0.032312198439 0.049588492791 0.038718843672 0.023697340469 0.054345967187 
0.019183174305 0.024959656711 0.017637614896 0.01067256795 0.0074391771224 0.0078894204438 0.0031179311764 0.0047654491809 0.0017822323216 
0.0017260541171 0.00074870560339 0.00042495087507 0.00033265955464 0.0001682181201 0.00015256108702 7.7707364675e-05 5.4077751272e-05 3.0596396859e-05 
2.3366845166e-05 1.2511009202e-05 4.6163900941e-06 1.6759420803e-06 5.5967883419e-07 1.9825040533e-07 6.177483301e-08 2.5106421739e-08 9.2662246766e-09 
2.5079025169e-09 3.7746259145e-09 3.6241424045e-10 1.9897898825e-10 1.3055130928e-15 3.4079651954e-16 4.6291823132e-18 0 0 
0 0 0 4.3647557564e-11 8.8661135114e-11 3.6264989023e-09 0.00014106479872 0.0008417183683 0.0012172018902 
0.0037599134493 0.0045120442873 0.010603824066 0.0038182421985 0.012130984288 0.0057952810666 0.023190294278 0.01127625789 0.029575003857 
0.017404304822 0.029802290901 0.044939951785 0.021219397117 0.032786756217 0.066662839135 0.080088606491 0.049968106009 0.054037217682 
0.094223966427 0.092592797101 0.14296772338 0.12647368214 0.089074568007 0.074967254725 0.10624448342 0.1489039611 0.10818742347 
0.081344842234 0.040817217682 0.081878879078 0.052866061217 0.035038812086 0.021552413138 0.013197724095 0.016375693255 0.0088411666192 
0.005247455246 0.0027252916296 0.00094334075454 0.00099545204174 0.00046236393527 0.00016304996648 6.7811472861e-05 2.2765591239e-05 7.4577091531e-06 
9.7392346338e-06 3.2053240833e-06 3.2367199767e-06 1.2937255227e-06 1.0259071582e-06 4.3041525269e-07 4.1093198192e-07 1.3606218818e-07 6.0999483174e-08 
2.0040350259e-08 9.9435419228e-09 3.3876966114e-09 1.4147531401e-09 5.1007794485e-10 4.9544657466e-10 3.2862415319e-15 8.131325919e-16 1.4486574934e-17 
0 0 0 0 0 0 0 4.8105265306e-09 1.6454646903e-08 
0.0022151958299 0.0036082796765 0.0120839623 0.013487771323 0.030299868209 0.031344533821 0.0564441691 0.057352226526 0.090663196058 
0.10317610244 0.049270006777 0.064563109607 0.14423484637 0.16356578989 0.094946575337 0.11332896534 0.1955946693 0.20558735898 
0.1377182348 0.13776285833 0.20922411889 0.20121118272 0.257427343 0.17648772039 0.20851442384 0.18483924295 0.16218877018 
0.14077335788 0.10431646922 0.097518521679 0.070060686854 0.070133023369 0.048405267799 0.037086550127 0.028399561743 0.020484362333 
0.013401275241 0.0089400924684 0.005612330993 0.0032691008374 0.0024360023255 0.0015096367736 0.0010741794284 0.00059278699033 0.00044441822278 
0.00025398074349 0.00016418606539 8.9882424309e-05 6.6530342319e-05 3.7079233361e-05 3.0311198362e-05 1.3670815455e-05 5.7654195377e-06 2.2841436987e-06 
9.3074172258e-07 3.6491905995e-07 2.0111893342e-07 6.4305930605e-08 3.6500872081e-08 1.2814869385e-08 1.37341677e-09 6.8465594921e-10 2.0153283413e-10 
9.3261652086e-16 5.9760510462e-17 0 4.7535946538e-08 3.0703372149e-06 0 3.7913158737e-06 0 1.4341726184e-06 
1.5283322917e-06 6.1774811107e-07 7.9588151638e-07 0.0099198507871 0.041075207984 0.042864927197 0.093004184739 0.085486985316 0.14324581814 
0.13107708851 0.18578448582 0.18092888321 0.38153610676 0.23617730229 0.24474407167 0.41149132352 0.28371571732 0.29047657556 
0.42217053819 0.40926953525 0.30404967484 0.29853186072 0.39764493729 0.36940135239 0.28064981019 0.31565558494 0.26485728737 
0.10544198451 0.15769165207 0.10756430959 0.066330549824 0.046405135073 0.031392201154 0.021180805014 0.012262695161 0.010806380939 
0.0055054108589 0.0050570927026 0.0039786351636 0.0024508708178 0.0013073556519 0.0007156798512 0.00051471848111 0.00033834608886 0.00027762640659 
0.00012625263019 6.6921437493e-05 4.2052754394e-05 1.3790869408e-05 6.3506733602e-06 5.8696148883e-06 2.7893738558e-06 1.2341857214e-06 5.8093093444e-07 
2.074608156e-07 7.2725205271e-08 5.602791098e-08 2.1041917311e-08 8.8117300349e-09 6.0954187825e-09 2.0400497034e-09 2.4055395156e-09 6.9547177704e-10 
2.9913864368e-15 3.0153740961e-16 1.0798626408e-16 6.3186390369e-08 0.99999563914 0.99999403546 0.99999520021 7.1862887774e-06 0.99999251044 
4.8007866735e-06 0.17665978651 0.15738400152 0.30690374306 0.24541769902 0.35530412441 0.63567835659 0.30561798369 0.38518632307 
0.60882474365 0.34102668971 0.6486448841 0.40478841027 0.59203353192 0.60980090837 0.57585791095 0.41790071137 0.57645942391 
0.55094947121 0.54269106006 0.51883368535 0.49765009862 0.44860175939 0.39328263567 0.32669695928 0.28873503045 0.22456664627 
0.19539167812 0.026809607298 0.033029852905 0.029170563027 0.025381455772 0.03575765076 0.031750047535 0.027959061649 0.024262158375 
0.039339153244 0.034879327513 0.030774239166 0.031988083832 0.038952553868 0.034377785511 0.029057060046 0.033735023385 0.038834423692 
0.04399730028 0.038955261436 0.03427781666 0.026736096428 0.03116829759 0.036117166504 0.041440258587 0.044697995755 0.039491355333 
0.034620276089 0.033828259492 0.039004238636 0.044433048624 0.045953395918 0.040615477187 0.035533404032 0.03700842251 0.042290148575 
0.0073383407151 0.0059493862294 0.0071353441027 0.023094198042 0.019665361595 0.021753634867 0.018432377198 0.015532832825 0.013120516282 
0.020748169264 0.017547624465 0.014762965274 0.012457978781 0.010656552414 0.023803297059 0.027614135616 0.015959104103 0.018380098414 
0.012128517543 0.010407702362 0.0091023634504 0.021321388502 0.024895375058 0.012703936264 0.014599113482 0.010420219425 0.0091169994206 
0.016834244151 0.019549627986 0.02285802918 0.010585469535 0.0092736397553 0.0082009170318 0.010416283503 0.011889369197 0.013671717578 
0.0099541168292 0.010780373792 0.0094531630204 0.0083610708629 0.0113475471 0.0085573976522 0.0096627217009 0.011008408114 0.011371321559 
0.0062651477666 0.0056678974803 0.0047483497259 0.0053668898042 0.0070259332724 0.0094169984331 0.0037199913963 0.0023402616519 0.0014861760138 
0.0010939615487 0.00092593460684 0.00021259030778 0.00012615161845 9.63650819e-05 7.0316710055e-05 2.7523519512e-05 1.3464524542e-05 4.9737743108e-06 
2.0819387235e-06 1.1875221074e-06 4.3692733229e-07 2.5967770843e-07 1.0184273406e-07 2.988030973e-08 7.1739893703e-09 2.2226498795e-09 4.2377370709e-10 
2.794145423e-10 1.0739854877e-15 1.4851741696e-07 3.1517170686e-06 1.5524326888e-06 0.99999987028 0.9999993162 0.99999552736 0.99999949692 
0.99999916246 0.99999835041 0.99999989408 0.99999860096 0.86445558542 0.9698852811 0.85047969585 0.69912094894 0.91299409642 
0.75012927818 0.91825871724 0.8620761037 0.69640599645 0.87065005034 0.81109110443 0.81397235998 0.76153810037 0.75292516721 
0.85998607731 0.71303060853 0.83614880087 0.79852982366 0.69120465042 0.65705574226 0.76569523886 0.73476600465 0.63709138659 
0.59456183822 0.68607614616 0.62869506818 0.54434452183 0.46943440173 0.41626226548 0.32802850739 0.17009613804 0.17836828011 
0.15472515488 0.088914076466 0.091799429058 0.051783651674 0.04709291514 0.028089433831 0.026044884547 0.013348666342 0.013731753394 
0.0067296757182 0.0079908073079 0.0044478689915 0.0025637778858 0.0037574123648 0.001519848673 0.0018472720889 0.00090686105611 0.00058591872809 
0.00023658104463 0.00013482691798 6.0204488153e-05 8.9073154121e-05 3.0408302013e-05 3.6555451705e-05 1.883348227e-05 8.3992728832e-06 5.4064211551e-06 
3.9045162169e-06 2.3300007343e-06 9.9101390507e-07 3.6198775923e-07 1.4537834449e-07 1.0239117692e-07 5.1998433164e-08 2.3018575396e-08 1.4090688408e-08 
5.7675104504e-09 1.05434653e-09 1.302569304e-09 4.3268489418e-15 9.0021134194e-09 1.847926071e-06 4.1675113224e-06 0.99999722502 0.99999410535 
0.9999998737 0.99999999994 1 1 0.99999999967 0.99999999747 0.99999999435 0.9994744073 0.99437794745 
0.9918833923 0.96214573588 0.98920094588 0.9744110208 0.97276943983 0.94878778773 0.94205858897 0.90981231312 0.95281947587 
0.89712915936 0.93758297315 0.90944488104 0.88197974897 0.84497224135 0.89569791409 0.85996681218 0.80305341481 0.76296728528 
0.68684142409 0.54826060976 0.61397944493 0.46585227764 0.28225070978 0.34265867957 0.27693320581 0.19642779828 0.17769409431 
0.14278885404 0.090487220058 0.10174522126 0.054438222089 0.08270556615 0.045489920685 0.028797754334 0.022912575475 0.014362650079 
0.010483271401 0.0066069430013 0.0028457671445 0.0045602949718 0.0018481846976 0.0012662290326 0.00076658779504 0.00057140948487 0.00028781549016 
0.00011711920678 1.3295335335e-05 4.4328063994e-05 1.4864078739e-05 5.9535914957e-06 2.1046782053e-06 3.7018327876e-07 9.0847918125e-07 1.8754537004e-07 
6.6788481971e-08 2.3410114462e-08 7.9617761621e-09 4.4318472853e-09 9.6517362682e-10 3.5394958027e-15 3.0603161243e-15 1.2086090501e-06 6.2374225101e-06 
0.99999566097 0.99999972308 1 1 0.99999999976 0.99999999732 0.99972722898 0.99785143189 0.99923154882 
0.99770541056 0.99633743336 0.99197273827 0.98892392523 0.97869538457 0.99406696798 0.98899900804 0.97151400883 0.98251426792 