# vtk DataFile Version 4.1
Generated by LAMMPS
ASCII
DATASET POLYDATA
POINTS 1324 float
0 0 0 0.04 0 0 0 0.04 0 
0.04 0.04 0 0.08 0 0 0.08 0.04 0 
0.12 0 0 0.16 0 0 0.12 0.04 0 
0.16 0.04 0 0.2 0 0 0.2 0.04 0 
0.24 0 0 0.28 0 0 0.24 0.04 0 
0.28 0.04 0 0.32 0 0 0.32 0.04 0 
0.36 0 0 0.4 0 0 0.36 0.04 0 
0.4 0.04 0 0.44 0 0 0.44 0.04 0 
0.48 0 0 0.52 0 0 0.48 0.04 0 
0.52 0.04 0 0.56 0 0 0.56 0.04 0 
0.6 0 0 0.64 0 0 0.6 0.04 0 
0.64 0.04 0 0.68 0 0 0.68 0.04 0 
0.72 0 0 0.76 0 0 0.72 0.04 0 
0.76 0.04 0 0.8 0 0 0.8 0.04 0 
0.84 0 0 0.88 0 0 0.84 0.04 0 
0.88 0.04 0 0.92 0 0 0.92 0.04 0 
0.96 0 0 0.96 0.04 0 1 0 0 
1.04 0 0 1 0.04 0 1.04 0.04 0 
1.08 0 0 1.08 0.04 0 1.12 0 0 
1.16 0 0 1.12 0.04 0 1.16 0.04 0 
1.2 0 0 1.2 0.04 0 1.24 0 0 
1.28 0 0 1.24 0.04 0 1.28 0.04 0 
1.32 0 0 1.32 0.04 0 1.36 0 0 
1.4 0 0 1.36 0.04 0 1.4 0.04 0 
1.44 0 0 1.44 0.04 0 1.48 0 0 
1.52 0 0 1.48 0.04 0 1.52 0.04 0 
1.56 0 0 1.56 0.04 0 1.6 0 0 
1.64 0 0 1.6 0.04 0 1.64 0.04 0 
1.68 0 0 1.68 0.04 0 1.72 0 0 
1.76 0 0 1.72 0.04 0 1.76 0.04 0 
1.8 0 0 1.8 0.04 0 1.84 0 0 
1.88 0 0 1.84 0.04 0 1.88 0.04 0 
1.92 0 0 1.92 0.04 0 1.96 0 0 
1.96 0.04 0 0 0.08 0 0.04 0.08 0 
0.08 0.08 0 0.12 0.08 0 0.16 0.08 0 
0.2 0.08 0 0.24 0.08 0 0.28 0.08 0 
0.32 0.08 0 0.36 0.08 0 0.4 0.08 0 
0.44 0.08 0 0.48 0.08 0 0.52 0.08 0 
0.56 0.08 0 0.6 0.08 0 0.64 0.08 0 
0.68 0.08 0 0.72 0.08 0 0.76 0.08 0 
0.8 0.08 0 0.84 0.08 0 0.88 0.08 0 
0.92 0.08 0 0.96 0.08 0 1 0.08 0 
1.04 0.08 0 1.08 0.08 0 1.12 0.08 0 
1.16 0.08 0 1.2 0.08 0 1.24 0.08 0 
1.28 0.08 0 1.32 0.08 0 1.36 0.08 0 
1.4 0.08 0 1.44 0.08 0 1.48 0.08 0 
1.52 0.08 0 1.56 0.08 0 1.6 0.08 0 
1.64 0.08 0 1.68 0.08 0 1.72 0.08 0 
1.76 0.08 0 1.8 0.08 0 1.84 0.08 0 
1.88 0.08 0 1.92 0.08 0 1.96 0.08 0 
0 0.12 0 0.04 0.12 0 0 0.16 0 
0.04 0.16 0 0.08 0.12 0 0.08 0.16 0 
0.12 0.12 0 0.16 0.12 0 0.12 0.16 0 
0.16 0.16 0 0.2 0.12 0 0.2 0.16 0 
0.24 0.12 0 0.28 0.12 0 0.24 0.16 0 
0.28 0.16 0 0.32 0.12 0 0.32 0.16 0 
0.36 0.12 0 0.4 0.12 0 0.36 0.16 0 
0.4 0.16 0 0.44 0.12 0 0.44 0.16 0 
0.48 0.12 0 0.52 0.12 0 0.48 0.16 0 
0.52 0.16 0 0.56 0.12 0 0.56 0.16 0 
0.6 0.12 0 0.64 0.12 0 0.6 0.16 0 
0.64 0.16 0 0.68 0.12 0 0.68 0.16 0 
0.72 0.12 0 0.76 0.12 0 0.72 0.16 0 
0.76 0.16 0 0.8 0.12 0 0.8 0.16 0 
0.84 0.12 0 0.88 0.12 0 0.84 0.16 0 
0.88 0.16 0 0.92 0.12 0 0.92 0.16 0 
0.96 0.12 0 0.96 0.16 0 1 0.12 0 
1.04 0.12 0 1 0.16 0 1.04 0.16 0 
1.08 0.12 0 1.08 0.16 0 1.12 0.12 0 
1.16 0.12 0 1.12 0.16 0 1.16 0.16 0 
1.2 0.12 0 1.2 0.16 0 1.24 0.12 0 
1.28 0.12 0 1.24 0.16 0 1.28 0.16 0 
1.32 0.12 0 1.32 0.16 0 1.36 0.12 0 
1.4 0.12 0 1.36 0.16 0 1.4 0.16 0 
1.44 0.12 0 1.44 0.16 0 1.48 0.12 0 
1.52 0.12 0 1.48 0.16 0 1.52 0.16 0 
1.56 0.12 0 1.56 0.16 0 1.6 0.12 0 
1.64 0.12 0 1.6 0.16 0 1.64 0.16 0 
1.68 0.12 0 1.68 0.16 0 1.72 0.12 0 
1.76 0.12 0 1.72 0.16 0 1.76 0.16 0 
1.8 0.12 0 1.8 0.16 0 1.84 0.12 0 
1.88 0.12 0 1.84 0.16 0 1.88 0.16 0 
1.92 0.12 0 1.92 0.16 0 1.96 0.12 0 
1.96 0.16 0 0 0.2 0 0.04 0.2 0 
0.08 0.2 0 0.12 0.2 0 0.16 0.2 0 
0.2 0.2 0 0.24 0.2 0 0.28 0.2 0 
0.32 0.2 0 0.36 0.2 0 0.4 0.2 0 
0.44 0.2 0 0.48 0.2 0 0.52 0.2 0 
0.56 0.2 0 0.6 0.2 0 0.64 0.2 0 
0.68 0.2 0 0.72 0.2 0 0.76 0.2 0 
0.8 0.2 0 0.84 0.2 0 0.88 0.2 0 
0.92 0.2 0 0.96 0.2 0 1 0.2 0 
1.04 0.2 0 1.08 0.2 0 1.12 0.2 0 
1.16 0.2 0 1.2 0.2 0 1.24 0.2 0 
1.28 0.2 0 1.32 0.2 0 1.36 0.2 0 
1.4 0.2 0 1.44 0.2 0 1.48 0.2 0 
1.52 0.2 0 1.56 0.2 0 1.6 0.2 0 
1.64 0.2 0 1.68 0.2 0 1.72 0.2 0 
1.76 0.2 0 1.8 0.2 0 1.84 0.2 0 
1.88 0.2 0 1.92 0.2 0 1.96 0.2 0 
0 0.24 0 0.04 0.24 0 0 0.28 0 
0.04 0.28 0 0.08 0.24 0 0.08 0.28 0 
0.12 0.24 0 0.16 0.24 0 0.12 0.28 0 
0.16 0.28 0 0.2 0.24 0 0.2 0.28 0 
0.24 0.24 0 0.28 0.24 0 0.24 0.28 0 
0.28 0.28 0 0.32 0.24 0 0.32 0.28 0 
0.36 0.24 0 0.4 0.24 0 0.36 0.28 0 
0.4 0.28 0 0.44 0.24 0 0.44 0.28 0 
0.48 0.24 0 0.52 0.24 0 0.48 0.28 0 
0.52 0.28 0 0.56 0.24 0 0.56 0.28 0 
0.6 0.24 0 0.64 0.24 0 0.6 0.28 0 
0.64 0.28 0 0.68 0.24 0 0.68 0.28 0 
0.72 0.24 0 0.76 0.24 0 0.72 0.28 0 
0.76 0.28 0 0.8 0.24 0 0.8 0.28 0 
0.84 0.24 0 0.88 0.24 0 0.84 0.28 0 
0.88 0.28 0 0.92 0.24 0 0.92 0.28 0 
0.96 0.24 0 0.96 0.28 0 1 0.24 0 
1.04 0.24 0 1 0.28 0 1.04 0.28 0 
1.08 0.24 0 1.08 0.28 0 1.12 0.24 0 
1.16 0.24 0 1.12 0.28 0 1.16 0.28 0 
1.2 0.24 0 1.2 0.28 0 1.24 0.24 0 
1.28 0.24 0 1.24 0.28 0 1.28 0.28 0 
1.32 0.24 0 1.32 0.28 0 1.36 0.24 0 
1.4 0.24 0 1.36 0.28 0 1.4 0.28 0 
1.44 0.24 0 1.44 0.28 0 1.48 0.24 0 
1.52 0.24 0 1.48 0.28 0 1.52 0.28 0 
1.56 0.24 0 1.56 0.28 0 1.6 0.24 0 
1.64 0.24 0 1.6 0.28 0 1.64 0.28 0 
1.68 0.24 0 1.68 0.28 0 1.72 0.24 0 
1.76 0.24 0 1.72 0.28 0 1.76 0.28 0 
1.8 0.24 0 1.8 0.28 0 1.84 0.24 0 
1.88 0.24 0 1.84 0.28 0 1.88 0.28 0 
1.92 0.24 0 1.92 0.28 0 1.96 0.24 0 
1.96 0.28 0 0 0.32 0 0.04 0.32 0 
0.08 0.32 0 0.12 0.32 0 0.16 0.32 0 
0.2 0.32 0 0.24 0.32 0 0.28 0.32 0 
0.32 0.32 0 0.36 0.32 0 0.4 0.32 0 
0.44 0.32 0 0.48 0.32 0 0.52 0.32 0 
0.56 0.32 0 0.6 0.32 0 0.64 0.32 0 
0.68 0.32 0 0.72 0.32 0 0.76 0.32 0 
0.8 0.32 0 0.84 0.32 0 0.88 0.32 0 
0.92 0.32 0 0.96 0.32 0 1 0.32 0 
1.04 0.32 0 1.08 0.32 0 1.12 0.32 0 
1.16 0.32 0 1.2 0.32 0 1.24 0.32 0 
1.28 0.32 0 1.32 0.32 0 1.36 0.32 0 
1.4 0.32 0 1.44 0.32 0 1.48 0.32 0 
1.52 0.32 0 1.56 0.32 0 1.6 0.32 0 
1.64 0.32 0 1.68 0.32 0 1.72 0.32 0 
1.76 0.32 0 1.8 0.32 0 1.84 0.32 0 
1.88 0.32 0 1.92 0.32 0 1.96 0.32 0 
0 0.36 0 0.04 0.36 0 0 0.4 0 
0.04 0.4 0 0.08 0.36 0 0.08 0.4 0 
0.12 0.36 0 0.16 0.36 0 0.12 0.4 0 
0.16 0.4 0 0.2 0.36 0 0.2 0.4 0 
0.24 0.36 0 0.28 0.36 0 0.24 0.4 0 
0.28 0.4 0 0.32 0.36 0 0.32 0.4 0 
0.36 0.36 0 0.4 0.36 0 0.36 0.4 0 
0.4 0.4 0 0.44 0.36 0 0.44 0.4 0 
0.48 0.36 0 0.52 0.36 0 0.48 0.4 0 
0.52 0.4 0 0.56 0.36 0 0.56 0.4 0 
0.6 0.36 0 0.64 0.36 0 0.6 0.4 0 
0.64 0.4 0 0.68 0.36 0 0.68 0.4 0 
0.72 0.36 0 0.76 0.36 0 0.72 0.4 0 
0.76 0.4 0 0.8 0.36 0 0.8 0.4 0 
0.84 0.36 0 0.88 0.36 0 0.84 0.4 0 
0.88 0.4 0 0.92 0.36 0 0.92 0.4 0 
0.96 0.36 0 0.96 0.4 0 1 0.36 0 
1.04 0.36 0 1 0.4 0 1.04 0.4 0 
1.08 0.36 0 1.08 0.4 0 1.12 0.36 0 
1.16 0.36 0 1.12 0.4 0 1.16 0.4 0 
1.2 0.36 0 1.2 0.4 0 1.24 0.36 0 
1.28 0.36 0 1.24 0.4 0 1.28 0.4 0 
1.32 0.36 0 1.32 0.4 0 1.36 0.36 0 
1.4 0.36 0 1.36 0.4 0 1.4 0.4 0 
1.44 0.36 0 1.44 0.4 0 1.48 0.36 0 
1.52 0.36 0 1.48 0.4 0 1.52 0.4 0 
1.56 0.36 0 1.56 0.4 0 1.6 0.36 0 
1.64 0.36 0 1.6 0.4 0 1.64 0.4 0 
1.68 0.36 0 1.68 0.4 0 1.72 0.36 0 
1.76 0.36 0 1.72 0.4 0 1.76 0.4 0 
1.8 0.36 0 1.8 0.4 0 1.84 0.36 0 
1.88 0.36 0 1.84 0.4 0 1.88 0.4 0 
1.92 0.36 0 1.92 0.4 0 1.96 0.36 0 
1.96 0.4 0 0 0.44 0 0.04 0.44 0 
0.08 0.44 0 0.12 0.44 0 0.16 0.44 0 
0.2 0.44 0 0.24 0.44 0 0.28 0.44 0 
0.32 0.44 0 0.36 0.44 0 0.4 0.44 0 
0.44 0.44 0 0.48 0.44 0 0.52 0.44 0 
0.56 0.44 0 0.6 0.44 0 0.64 0.44 0 
0.68 0.44 0 0.72 0.44 0 0.76 0.44 0 
0.8 0.44 0 0.84 0.44 0 0.88 0.44 0 
0.92 0.44 0 0.96 0.44 0 1 0.44 0 
1.04 0.44 0 1.08 0.44 0 1.12 0.44 0 
1.16 0.44 0 1.2 0.44 0 1.24 0.44 0 
1.28 0.44 0 1.32 0.44 0 1.36 0.44 0 
1.4 0.44 0 1.44 0.44 0 1.48 0.44 0 
1.52 0.44 0 1.56 0.44 0 1.6 0.44 0 
1.64 0.44 0 1.68 0.44 0 1.72 0.44 0 
1.76 0.44 0 1.8 0.44 0 1.84 0.44 0 
1.88 0.44 0 1.92 0.44 0 1.96 0.44 0 
0 0.48 0 0.04 0.48 0 0 0.52 0 
0.04 0.52 0 0.08 0.48 0 0.08 0.52 0 
0.12 0.48 0 0.16 0.48 0 0.12 0.52 0 
0.16 0.52 0 0.2 0.48 0 0.2 0.52 0 
0.24 0.48 0 0.28 0.48 0 0.24 0.52 0 
0.28 0.52 0 0.32 0.48 0 0.32 0.52 0 
0.36 0.48 0 0.4 0.48 0 0.36 0.52 0 
0.4 0.52 0 0.44 0.48 0 0.44 0.52 0 
0.48 0.48 0 0.52 0.48 0 0.48 0.52 0 
0.52 0.52 0 0.56 0.48 0 0.56 0.52 0 
0.6 0.48 0 0.64 0.48 0 0.6 0.52 0 
0.64 0.52 0 0.68 0.48 0 0.68 0.52 0 
0.72 0.48 0 0.76 0.48 0 0.72 0.52 0 
0.76 0.52 0 0.8 0.48 0 0.8 0.52 0 
0.84 0.48 0 0.88 0.48 0 0.84 0.52 0 
0.88 0.52 0 0.92 0.48 0 0.92 0.52 0 
0.96 0.48 0 0.96 0.52 0 0.996 0.476 0 
0.988 0.48 0 0.992 0.48 0 0.996 0.48 0 
0.984 0.484 0 0.988 0.484 0 0.992 0.484 0 
0.996 0.484 0 0.98 0.488 0 0.984 0.488 0 
0.988 0.488 0 0.996 0.524 0 0.98 0.492 0 
0.984 0.492 0 0.996 0.52 0 0.992 0.52 0 
0.988 0.52 0 0.976 0.496 0 0.98 0.496 0 
0.984 0.496 0 0.996 0.516 0 0.992 0.516 0 
0.988 0.516 0 0.984 0.516 0 0.976 0.5 0 
0.98 0.5 0 0.984 0.5 0 0.988 0.512 0 
0.984 0.512 0 0.98 0.512 0 0.976 0.504 0 
0.98 0.504 0 0.984 0.504 0 0.984 0.508 0 
0.98 0.508 0 1.04 0.48 0 1.04 0.52 0 
1 0.476 0 1.004 0.476 0 1 0.48 0 
1.004 0.48 0 1.008 0.48 0 1.012 0.48 0 
1 0.484 0 1.004 0.484 0 1.008 0.484 0 
1.012 0.484 0 1.016 0.484 0 1.004 0.524 0 
1 0.524 0 1.012 0.52 0 1.008 0.52 0 
1.012 0.488 0 1.016 0.488 0 1.02 0.488 0 
1.004 0.52 0 1 0.52 0 1.016 0.516 0 
1.012 0.516 0 1.016 0.492 0 1.02 0.492 0 
1.008 0.516 0 1.004 0.516 0 1 0.516 0 
1.016 0.496 0 1.02 0.496 0 1.024 0.496 0 
1.02 0.512 0 1.016 0.512 0 1.012 0.512 0 
1.02 0.508 0 1.016 0.5 0 1.02 0.5 0 
1.024 0.5 0 1.016 0.508 0 1.024 0.504 0 
1.02 0.504 0 1.016 0.504 0 1.08 0.48 0 
1.08 0.52 0 1.12 0.48 0 1.16 0.48 0 
1.12 0.52 0 1.16 0.52 0 1.2 0.48 0 
1.2 0.52 0 1.24 0.48 0 1.28 0.48 0 
1.24 0.52 0 1.28 0.52 0 1.32 0.48 0 
1.32 0.52 0 1.36 0.48 0 1.4 0.48 0 
1.36 0.52 0 1.4 0.52 0 1.44 0.48 0 
1.44 0.52 0 1.48 0.48 0 1.52 0.48 0 
1.48 0.52 0 1.52 0.52 0 1.56 0.48 0 
1.56 0.52 0 1.6 0.48 0 1.64 0.48 0 
1.6 0.52 0 1.64 0.52 0 1.68 0.48 0 
1.68 0.52 0 1.72 0.48 0 1.76 0.48 0 
1.72 0.52 0 1.76 0.52 0 1.8 0.48 0 
1.8 0.52 0 1.84 0.48 0 1.88 0.48 0 
1.84 0.52 0 1.88 0.52 0 1.92 0.48 0 
1.92 0.52 0 1.96 0.48 0 1.96 0.52 0 
0 0.56 0 0.04 0.56 0 0.08 0.56 0 
0.12 0.56 0 0.16 0.56 0 0.2 0.56 0 
0.24 0.56 0 0.28 0.56 0 0.32 0.56 0 
0.36 0.56 0 0.4 0.56 0 0.44 0.56 0 
0.48 0.56 0 0.52 0.56 0 0.56 0.56 0 
0.6 0.56 0 0.64 0.56 0 0.68 0.56 0 
0.72 0.56 0 0.76 0.56 0 0.8 0.56 0 
0.84 0.56 0 0.88 0.56 0 0.92 0.56 0 
0.96 0.56 0 1 0.56 0 1.04 0.56 0 
1.08 0.56 0 1.12 0.56 0 1.16 0.56 0 
1.2 0.56 0 1.24 0.56 0 1.28 0.56 0 
1.32 0.56 0 1.36 0.56 0 1.4 0.56 0 
1.44 0.56 0 1.48 0.56 0 1.52 0.56 0 
1.56 0.56 0 1.6 0.56 0 1.64 0.56 0 
1.68 0.56 0 1.72 0.56 0 1.76 0.56 0 
1.8 0.56 0 1.84 0.56 0 1.88 0.56 0 
1.92 0.56 0 1.96 0.56 0 0 0.6 0 
0.04 0.6 0 0 0.64 0 0.04 0.64 0 
0.08 0.6 0 0.08 0.64 0 0.12 0.6 0 
0.16 0.6 0 0.12 0.64 0 0.16 0.64 0 
[...]
POINT_DATA 1324
FIELD FieldData 9
id 1 1324 int
1176 1177 1179 1180 1178 1181 4 5 54 
55 6 56 7 8 57 58 9 59 
10 11 60 61 12 62 13 14 63 
64 15 65 16 17 66 67 18 68 
19 20 69 70 21 71 22 23 72 
73 24 74 25 75 26 27 76 77 
28 78 29 30 79 80 31 81 32 
33 82 83 34 84 35 36 85 86 
37 87 38 39 88 89 40 90 41 
42 91 92 43 93 44 45 94 95 
46 96 47 48 97 98 49 99 50 
100 1182 1183 1184 104 105 106 107 108 
109 110 111 112 113 114 115 116 117 
118 119 120 121 122 123 124 125 126 
127 128 129 130 131 132 133 134 135 
136 137 138 139 140 141 142 143 144 
145 146 147 148 149 150 1185 1186 1188 
1189 1187 1190 154 155 204 205 156 206 
157 158 207 208 159 209 160 161 210 
211 162 212 163 164 213 214 165 215 
166 167 216 217 168 218 169 170 219 
220 171 221 172 173 222 223 174 224 
175 225 176 177 226 227 178 228 179 
180 229 230 181 231 182 183 232 233 
184 234 185 186 235 236 187 237 188 
189 238 239 190 240 191 192 241 242 
193 243 194 195 244 245 196 246 197 
198 247 248 199 249 200 250 1191 1192 
1193 254 255 256 257 258 259 260 261 
262 263 264 265 266 267 268 269 270 
271 272 273 274 275 276 277 278 279 
280 281 282 283 284 285 286 287 288 
289 290 291 292 293 294 295 296 297 
298 299 300 1194 1195 1197 1198 1196 1199 
304 305 354 355 306 356 307 308 357 
358 309 359 310 311 360 361 312 362 
313 314 363 364 315 365 316 317 366 
367 318 368 319 320 369 370 321 371 
322 323 372 373 324 374 325 375 326 
327 376 377 328 378 329 330 379 380 
331 381 332 333 382 383 334 384 335 
336 385 386 337 387 338 339 388 389 
340 390 341 342 391 392 343 393 344 
345 394 395 346 396 347 348 397 398 
349 399 350 400 1200 1201 1202 404 405 
406 407 408 409 410 411 412 413 414 
415 416 417 418 419 420 421 422 423 
424 425 426 427 428 429 430 431 432 
433 434 435 436 437 438 439 440 441 
442 443 444 445 446 447 448 449 450 
1203 1204 1206 1207 1205 1208 454 455 504 
505 456 506 457 458 507 508 459 509 
460 461 510 511 462 512 463 464 513 
514 465 515 466 467 516 517 468 518 
469 470 519 520 471 521 472 473 522 
523 474 524 475 525 476 477 526 527 
478 528 479 480 529 530 481 531 482 
483 532 533 484 534 485 486 535 536 
487 537 488 489 538 539 490 540 491 
492 541 542 493 543 494 495 544 545 
496 546 497 498 547 548 499 549 500 
550 1209 1210 1211 554 555 556 557 558 
559 560 561 562 563 564 565 566 567 
568 569 570 571 572 573 574 575 576 
577 578 579 580 581 582 583 584 585 
586 587 588 589 590 591 592 593 594 
595 596 597 598 599 600 1212 1213 1215 
1216 1214 1217 604 605 654 655 606 656 
607 608 657 658 609 659 610 611 660 
661 612 662 613 614 663 664 615 665 
616 617 666 667 618 668 619 620 669 
670 621 671 622 623 672 673 624 674 
625 675 1249 1252 1253 1254 1259 1260 1261 
1262 1268 1269 1270 1273 1279 1280 1283 1284 
1285 1290 1291 1292 1296 1297 1298 1299 1303 
1304 1305 1309 1310 1311 1316 1317 1318 1320 
1321 627 677 1250 1251 1255 1256 1257 1258 
1263 1264 1265 1266 1267 1271 1272 1274 1275 
1276 1277 1278 1281 1282 1286 1287 1288 1289 
1293 1294 1295 1300 1301 1302 1306 1307 1308 
1312 1313 1314 1315 1319 1322 1323 1324 628 
678 629 630 679 680 631 681 632 633 
682 683 634 684 635 636 685 686 637 
687 638 639 688 689 640 690 641 642 
691 692 643 693 644 645 694 695 646 
696 647 648 697 698 649 699 650 700 
1218 1219 1220 704 705 706 707 708 709 
710 711 712 713 714 715 716 717 718 
719 720 721 722 723 724 725 726 727 
728 729 730 731 732 733 734 735 736 
737 738 739 740 741 742 743 744 745 
746 747 748 749 750 1221 1222 1224 1225 
1223 1226 754 755 804 805 756 806 757 
758 807 808 759 809 760 761 810 811 
762 812 763 764 813 814 765 815 766 
767 816 817 768 818 769 770 819 820 
771 821 772 773 822 823 774 824 775 
825 776 777 826 827 778 828 779 780 
829 830 781 831 782 783 832 833 784 
834 785 786 835 836 787 837 788 789 
838 839 790 840 791 792 841 842 793 
843 794 795 844 845 796 846 797 798 
847 848 799 849 800 850 1227 1228 1229 
854 855 856 857 858 859 860 861 862 
863 864 865 866 867 868 869 870 871 
872 873 874 875 876 877 878 879 880 
881 882 883 884 885 886 887 888 889 
890 891 892 893 894 895 896 897 898 
899 900 1230 1231 1233 1234 1232 1235 904 
905 954 955 906 956 907 908 957 958 
909 959 910 911 960 961 912 962 913 
914 963 964 915 965 916 917 966 967 
918 968 919 920 969 970 921 971 922 
923 972 973 924 974 925 975 926 927 
976 977 928 978 929 930 979 980 931 
981 932 933 982 983 934 984 935 936 
985 986 937 987 938 939 988 989 940 
990 941 942 991 992 943 993 944 945 
994 995 946 996 947 948 997 998 949 
999 950 1000 1236 1237 1238 1004 1005 1006 
1007 1008 1009 1010 1011 1012 1013 1014 1015 
1016 1017 1018 1019 1020 1021 1022 1023 1024 
1025 1026 1027 1028 1029 1030 1031 1032 1033 
1034 1035 1036 1037 1038 1039 1040 1041 1042 
1043 1044 1045 1046 1047 1048 1049 1050 1239 
1240 1242 1243 1241 1244 1054 1055 1104 1105 
1056 1106 1057 1058 1107 1108 1059 1109 1060 
1061 1110 1111 1062 1112 1063 1064 1113 1114 
1065 1115 1066 1067 1116 1117 1068 1118 1069 
1070 1119 1120 1071 1121 1072 1073 1122 1123 
1074 1124 1075 1125 1076 1077 1126 1127 1078 
1128 1079 1080 1129 1130 1081 1131 1082 1083 
1132 1133 1084 1134 1085 1086 1135 1136 1087 
1137 1088 1089 1138 1139 1090 1140 1091 1092 
1141 1142 1093 1143 1094 1095 1144 1145 1096 
1146 1097 1098 1147 1148 1099 1149 1100 1150 
1245 1246 1247 1154 1155 1156 1157 1158 1159 
1160 1161 1162 1163 1164 1165 1166 1167 1168 
1169 1170 1171 1172 1173 1174 1175 1152 1153 
1151 1102 1103 1101 1052 1053 1051 1002 1003 
1001 952 953 951 902 903 901 852 853 
851 802 803 801 753 676 1248 626 751 
752 703 701 702 653 651 652 603 601 
602 553 551 552 503 501 502 453 451 
452 403 402 353 401 352 303 351 302 
253 301 252 203 251 202 153 201 152 
103 151 102 53 101 52 3 51 2 
1 
C_[0] 1 1324 double
0 0 0 0 0 0 0 0 0 
0 0 0 0 0 0 0 0 0 
0 0 0 0 0 0 0 0 0 
0 0 0 0 0 0 0 0 0 
0 0 0 0 0 0 0 0 0 
0 0 0 0 0 0 0 0 0 
0 0 0 0 0 0 0 0 0 
0 0 0 0 0 0 0 0 0 
0 0 0 0 0 0 0 0 0 
0 0 0 0 0 0 0 0 0 
0 0 0 0 0 0 0 0 0 
0 0 0 0 0 0 0 0 0 
0 0 0 0 0 0 0 0 0 
0 0 0 0 0 0 0 0 0 
0 0 0 0 0 0 0 0 0 
0 0 0 0 0 0 0 0 0 
0 0 0 0 0 0 0 0 0 
0 0 0 0 0 0 0 0 0 
0 0 0 0 0 0 0 0 0 
0 0 0 0 0 0 0 0 0 
0 0 0 0 0 0 0 0 0 
0 0 0 0 0 0 0 0 0 
0 0 0 0 0 0 0 0 0 
0 0 0 0 0 0 0 0 0 
0 0 0 0 0 0 0 0 0 
0 0 0 0 0 0 0 0 0 
0 0 0 0 0 0 0 0 0 
0 0 0 0 0 0 0 0 0 
0 0 0 0 0 0 0 0 0 
0 0 0 0 0 0 0 0 0 
0 0 0 0 0 0 0 0 0 
0 0 0 0 0 0 0 0 0 
0 0 0 0 0 0 0 0 0 
0 0 0 0 0 0 0 0 0 
0 0 0 0 0 0 0 0 0 
0 0 0 0 0 0 0 0 0 
0 0 0 0 0 0 0 0 0 
0 0 0 0 0 0 0 0 0 
0 0 0 0 0 0 0 0 0 
0 0 0 0 0 0 0 0 0 
0 0 0 0 0 0 0 0 0 
0 0 0 0 0 0 0 0 0 
0 0 0 0 0 0 0 0 0 
0 0 0 0 0 0 0 0 0 
0 0 0 0 0 0 0 0 0 
0 0 0 0 0 0 0 0 0 
0 0 0 0 0 0 0 0 0 
0 0 0 0 0 0 0 0 0 
0 0 0 0 0 0 0 0 0 
0 0 0 0 0 0 0 0 0 
0 0 0 0 0 0 0 0 0 
0 0 0 0 0 0 0 0 0 
0 0 0 0 0 0 0 0 0 
0 0 0 0 0 0 0 0 0 
0 0 0 0 0 0 0 0 0 
0 0 0 0 0 0 0 0 0 
0 0 0 0 0 0 0 0 0 
0 0 0 0 0 0 0 0 0 
0 0 0 0 0 0 0 0 0 
0 0 0 0 0 0 0 0 0 
0 0 0 0 0 0 0 0 0 
0 0 0 0 0 0 0 0 0 
0 0 0 0 0 0 0 0 0 
0 0 0 0 0 0 0 0 0 
0 0 0 0 0 0 0 0 0 
0 0 0 0 0 0 0 0 0 
0 0 0 0 0 0 0 0 0 
0 0 0 0 0 0 0 0 0 
0 0 0 0 0 0 0 0 0 
0 0 0 0 0 0 0 0 0 
0 0 0 0 0 0 0 0 0 
0 0 0 0 0 0 0 0 0 
0 0 0 0 0 0 0 0 0 
0 0 0 0 0 0 0 0 0 
0 0 0 0 0 0 0 0 0 
0 0 0 0 0 0 0 0 0 
0 0 0 0 0 0 0 0 0 
0 0 0 0 0 0 0 0 0 
0 0 0 0 0 0 0 0 0 
0 0 0 0 0 0 0 0 0 
0 0 0 0 0 0 0 0 0 
0 0 0 0 0 0 0 0 0 
0 0 0 0 0 0 0 0 0 
0 0 0 0 0 0 0 0 0 
0 0 0 0 0 0 0 0 0 
0 0 0 0 0 0 0 0 0 
0 0 0 0 0 0 0 0 0 
0 0 0 0 0 0 0 0 0 
0 0 0 0 0 0 0 0 0 
0 0 0 0 0 0 0 0 0 
0 0 0 0 0 0 0 0 0 
0 0 0 0 0 0 0 0 0 
0 0 0 0 0 0 0 0 0 
0 0 0 0 0 0 0 0 0 
0 0 0 0 0 0 0 0 0 
0 0 0 0 0 0 0 0 0 
0 0 0 0 0 0 0 0 0 
0 0 0 0 0 0 0 0 0 
0 0 0 0 0 0 0 0 0 
0 0 0 0 0 0 0 0 0 
0 0 0 0 0 0 0 0 0 
0 0 0 0 0 0 0 0 0 
0 0 0 0 0 0 0 0 0 
0 0 0 0 0 0 0 0 0 
0 0 0 0 0 0 0 0 0 
0 0 0 0 0 0 0 0 0 
0 0 0 0 0 0 0 0 0 
0 0 0 0 0 0 0 0 0 
0 0 0 0 0 0 0 0 0 
0 0 0 0 0 0 0 0 0 
0 0 0 0 0 0 0 0 0 
0 0 0 0 0 0 0 0 0 
0 0 0 0 0 0 0 0 0 
0 0 0 0 0 0 0 0 0 
0 0 0 0 0 0 0 0 0 
0 0 0 0 0 0 0 0 0 
0 0 0 0 0 0 0 0 0 
0 0 0 0 0 0 0 0 0 
0 0 0 0 0 0 0 0 0 
0 0 0 0 0 0 0 0 0 
0 0 0 0 0 0 0 0 0 
0 0 0 0 0 0 0 0 0 
0 0 0 0 0 0 0 0 0 
0 0 0 0 0 0 0 0 0 
0 0 0 0 0 0 0 0 0 
0 0 0 0 0 0 0 0 0 
0 0 0 0 0 0 0 0 0 
0 0 0 0 0 0 0 0 0 
0 0 0 0 0 0 0 0 0 
0 0 0 0 0 0 0 0 0 
0 0 0 0 0 0 0 0 0 
0 0 0 0 0 0 0 0 0 
0 0 0 0 0 0 0 0 0 
0 0 0 0 0 0 0 0 0 
0 0 0 0 0 0 0 0 0 
0 0 0 0 0 0 0 0 0 
0 0 0 0 0 0 0 0 0 
0 0 0 0 0 0 0 0 0 
0 0 0 0 0 0 0 0 0 
0 0 0 0 0 0 0 0 0 
0 0 0 0 0 0 0 0 0 
0 0 0 0 0 0 0 0 0 
0 0 0 0 0 0 0 0 0 
0 0 0 0 0 0 0 0 0 
0 0 0 0 0 0 0 0 0 
0 0 0 0 0 0 0 0 0 
0 0 0 0 0 0 0 0 0 
0 
Cd_[0] 1 1324 double
0 0 0 0 0 0 0 0 0 
0 0 0 0 0 0 0 0 0 
0 0 0 0 0 0 0 0 0 
0 0 0 0 0 0 0 0 0 
0 0 0 0 0 0 0 0 0 
0 0 0 0 0 0 0 0 0 
0 0 0 0 0 0 0 0 0 
0 0 0 0 0 0 0 0 0 
0 0 0 0 0 0 0 0 0 
0 0 0 0 0 0 0 0 0 
0 0 0 0 0 0 0 0 0 
0 0 0 0 0 0 0 0 0 
0 0 0 0 0 0 0 0 0 
0 0 0 0 0 0 0 0 0 
0 0 0 0 0 0 0 0 0 
0 0 0 0 0 0 0 0 0 
0 0 0 0 0 0 0 0 0 
0 0 0 0 0 0 0 0 0 
0 0 0 0 0 0 0 0 0 
0 0 0 0 0 0 0 0 0 
0 0 0 0 0 0 0 0 0 
0 0 0 0 0 0 0 0 0 
0 0 0 0 0 0 0 0 0 
0 0 0 0 0 0 0 0 0 
0 0 0 0 0 0 0 0 0 
0 0 0 0 0 0 0 0 0 
0 0 0 0 0 0 0 0 0 
0 0 0 0 0 0 0 0 0 
0 0 0 0 0 0 0 0 0 
0 0 0 0 0 0 0 0 0 
0 0 0 0 0 0 0 0 0 
0 0 0 0 0 0 0 0 0 
0 0 0 0 0 0 0 0 0 
0 0 0 0 0 0 0 0 0 
0 0 0 0 0 0 0 0 0 
0 0 0 0 0 0 0 0 0 
0 0 0 0 0 0 0 0 0 
0 0 0 0 0 0 0 0 0 
0 0 0 0 0 0 0 0 0 
0 0 0 0 0 0 0 0 0 
0 0 0 0 0 0 0 0 0 
0 0 0 0 0 0 0 0 0 
0 0 0 0 0 0 0 0 0 
0 0 0 0 0 0 0 0 0 
0 0 0 0 0 0 0 0 0 
0 0 0 0 0 0 0 0 0 
0 0 0 0 0 0 0 0 0 
0 0 0 0 0 0 0 0 0 
0 0 0 0 0 0 0 0 0 
0 0 0 0 0 0 0 0 0 
0 0 0 0 0 0 0 0 0 
0 0 0 0 0 0 0 0 0 
0 0 0 0 0 0 0 0 0 
0 0 0 0 0 0 0 0 0 
0 0 0 0 0 0 0 0 0 
0 0 0 0 0 0 0 0 0 
0 0 0 0 0 0 0 0 0 
0 0 0 0 0 0 0 0 0 
0 0 0 0 0 0 0 0 0 
0 0 0 0 0 0 0 0 0 
0 0 0 0 0 0 0 0 0 
0 0 0 0 0 0 0 0 0 
0 0 0 0 0 0 0 0 0 
0 0 0 0 0 0 0 0 0 
0 0 0 0 0 0 0 0 0 
0 0 0 0 0 0 0 0 0 
0 0 0 0 0 0 0 0 0 
0 0 0 0 0 0 0 0 0 
0 0 0 0 0 0 0 0 0 
0 0 0 0 0 0 0 0 0 
0 0 0 0 0 0 0 0 0 
0 0 0 0 0 0 0 0 0 
0 0 0 0 0 0 0 0 0 
0 0 0 0 0 0 0 0 0 
0 0 0 0 0 0 0 0 0 
0 0 0 0 0 0 0 0 0 
0 0 0 0 0 0 0 0 0 
0 0 0 0 0 0 0 0 0 
0 0 0 0 0 0 0 0 0 
0 0 0 0 0 0 0 0 0 
0 0 0 0 0 0 0 0 0 
0 0 0 0 0 0 0 0 0 
0 0 0 0 0 0 0 0 0 
0 0 0 0 0 0 0 0 0 
0 0 0 0 0 0 0 0 0 
0 0 0 0 0 0 0 0 0 
0 0 0 0 0 0 0 0 0 
0 0 0 0 0 0 0 0 0 
0 0 0 0 0 0 0 0 0 
0 0 0 0 0 0 0 0 0 
0 0 0 0 0 0 0 0 0 
0 0 0 0 0 0 0 0 0 
0 0 0 0 0 0 0 0 0 
0 0 0 0 0 0 0 0 0 
0 0 0 0 0 0 0 0 0 
0 0 0 0 0 0 0 0 0 
0 0 0 0 0 0 0 0 0 
0 0 0 0 0 0 0 0 0 
0 0 0 0 0 0 0 0 0 
0 0 0 0 0 0 0 0 0 
0 0 0 0 0 0 0 0 0 
0 0 0 0 0 0 0 0 0 
0 0 0 0 0 0 0 0 0 
0 0 0 0 0 0 0 0 0 
0 0 0 0 0 0 0 0 0 
0 0 0 0 0 0 0 0 0 
0 0 0 0 0 0 0 0 0 
0 0 0 0 0 0 0 0 0 
0 0 0 0 0 0 0 0 0 
0 0 0 0 0 0 0 0 0 
0 0 0 0 0 0 0 0 0 
0 0 0 0 0 0 0 0 0 
0 0 0 0 0 0 0 0 0 
0 0 0 0 0 0 0 0 0 
0 0 0 0 0 0 0 0 0 
0 0 0 0 0 0 0 0 0 
0 0 0 0 0 0 0 0 0 
0 0 0 0 0 0 0 0 0 
0 0 0 0 0 0 0 0 0 
0 0 0 0 0 0 0 0 0 
0 0 0 0 0 0 0 0 0 
0 0 0 0 0 0 0 0 0 
0 0 0 0 0 0 0 0 0 
0 0 0 0 0 0 0 0 0 
0 0 0 0 0 0 0 0 0 
0 0 0 0 0 0 0 0 0 
0 0 0 0 0 0 0 0 0 
0 0 0 0 0 0 0 0 0 
0 0 0 0 0 0 0 0 0 
0 0 0 0 0 0 0 0 0 
0 0 0 0 0 0 0 0 0 
0 0 0 0 0 0 0 0 0 
0 0 0 0 0 0 0 0 0 
0 0 0 0 0 0 0 0 0 
0 0 0 0 0 0 0 0 0 
0 0 0 0 0 0 0 0 0 
0 0 0 0 0 0 0 0 0 
0 0 0 0 0 0 0 0 0 
0 0 0 0 0 0 0 0 0 
0 0 0 0 0 0 0 0 0 
0 0 0 0 0 0 0 0 0 
0 0 0 0 0 0 0 0 0 
0 0 0 0 0 0 0 0 0 
0 0 0 0 0 0 0 0 0 
0 0 0 0 0 0 0 0 0 
0 0 0 0 0 0 0 0 0 
0 0 0 0 0 0 0 0 0 
0 
C_[1] 1 1324 double
0 0 0 0 0 0 0 0 0 
0 0 0 0 0 0 0 0 0 
0 0 0 0 0 0 0 0 0 
0 0 0 0 0 0 0 0 0 
0 0 0 0 0 0 0 0 0 
0 0 0 0 0 0 0 0 0 
0 0 0 0 0 0 0 0 0 
0 0 0 0 0 0 0 0 0 
0 0 0 0 0 0 0 0 0 
0 0 0 0 0 0 0 0 0 
0 0 0 0 0 0 0 0 0 
0 0 0 0 0 0 0 0 0 
0 0 0 0 0 0 0 0 0 
0 0 0 0 0 0 0 0 0 
0 0 0 0 0 0 0 0 0 
0 0 0 0 0 0 0 0 0 
0 0 0 0 0 0 0 0 0 
0 0 0 0 0 0 0 0 0 
0 0 0 0 0 0 0 0 0 
0 0 0 0 0 0 0 0 0 
0 0 0 0 0 0 0 0 0 
0 0 0 0 0 0 0 0 0 
0 0 0 0 0 0 0 0 0 
0 0 0 0 0 0 0 0 0 
0 0 0 0 0 0 0 0 0 
0 0 0 0 0 0 0 0 0 
0 0 0 0 0 0 0 0 0 
0 0 0 0 0 0 0 0 0 
0 0 0 0 0 0 0 0 0 
0 0 0 0 0 0 0 0 0 
0 0 0 0 0 0 0 0 0 
0 0 0 0 0 0 0 0 0 
0 0 0 0 0 0 0 0 0 
0 0 0 0 0 0 0 0 0 
0 0 0 0 0 0 0 0 0 
0 0 0 0 0 0 0 0 0 
0 0 0 0 0 0 0 0 0 
0 0 0 0 0 0 0 0 0 
0 0 0 0 0 0 0 0 0 
0 0 0 0 0 0 0 0 0 
0 0 0 0 0 0 0 0 0 
0 0 0 0 0 0 0 0 0 
0 0 0 0 0 0 0 0 0 
0 0 0 0 0 0 0 0 0 
0 0 0 0 0 0 0 0 0 
0 0 0 0 0 0 0 0 0 
0 0 0 0 0 0 0 0 0 
0 0 0 0 0 0 0 0 0 
0 0 0 0 0 0 0 0 0 
0 0 0 0 0 0 0 0 0 
0 0 0 0 0 0 0 0 0 
0 0 0 0 0 0 0 0 0 
0 0 0 0 0 0 0 0 0 
0 0 0 0 0 0 0 0 0 
0 0 0 0 0 0 0 0 0 
0 0 0 0 0 0 0 0 0 
0 0 0 0 0 0 0 0 0 
0 0 0 0 0 0 0 0 0 
0 0 0 0 0 0 0 0 0 
0 0 0 0 0 0 0 0 0 
0 0 0 0 0 0 0 0 0 
0 0 0 0 0 0 0 0 0 
0 0 0 0 0 0 0 0 0 
0 0 0 0 0 0 0 0 0 
0 0 0 0 0 0 0 0 0 
0 0 0 0 0 0 0 0 0 
0 0 0 0 0 0 0 0 0 
0 0 0 0 0 0 0 0 0 
0 0 0 0 0 0 0 0 0 
0 0 0 0 0 0 0 0 0 
0 0 0 0 0 0 0 0 0 
0 0 0 0 0 0 0 0 0 
0 0 0 0 0 0 0 0 0 
0 0 0 0 0 0 0 0 0 
0 0 0 0 0 0 0 0 0 
0 0 0 0 0 0 0 0 0 
0 0 0 0 0 0 0 0 0 
0 0 0 0 0 0 0 0 0 
0 0 0 0 0 0 0 0 0 
0 0 0 0 0 0 0 0 0 
0 0 0 0 0 0 0 0 0 
0 0 0 0 0 0 0 0 0 
0 0 0 0 0 0 0 0 0 
0 0 0 0 0 0 0 0 0 
0 0 0 0 0 0 0 0 0 
0 0 0 0 0 0 0 0 0 
0 0 0 0 0 0 0 0 0 
0 0 0 0 0 0 0 0 0 
0 0 0 0 0 0 0 0 0 
0 0 0 0 0 0 0 0 0 
0 0 0 0 0 0 0 0 0 
0 0 0 0 0 0 0 0 0 
0 0 0 0 0 0 0 0 0 
0 0 0 0 0 0 0 0 0 
0 0 0 0 0 0 0 0 0 
0 0 0 0 0 0 0 0 0 
0 0 0 0 0 0 0 0 0 
0 0 0 0 0 0 0 0 0 
0 0 0 0 0 0 0 0 0 
0 0 0 0 0 0 0 0 0 
0 0 0 0 0 0 0 0 0 
0 0 0 0 0 0 0 0 0 
0 0 0 0 0 0 0 0 0 
0 0 0 0 0 0 0 0 0 
0 0 0 0 0 0 0 0 0 
0 0 0 0 0 0 0 0 0 
0 0 0 0 0 0 0 0 0 
0 0 0 0 0 0 0 0 0 
0 0 0 0 0 0 0 0 0 
0 0 0 0 0 0 0 0 0 
0 0 0 0 0 0 0 0 0 
0 0 0 0 0 0 0 0 0 
0 0 0 0 0 0 0 0 0 
0 0 0 0 0 0 0 0 0 
0 0 0 0 0 0 0 0 0 
0 0 0 0 0 0 0 0 0 
0 0 0 0 0 0 0 0 0 
0 0 0 0 0 0 0 0 0 
0 0 0 0 0 0 0 0 0 
0 0 0 0 0 0 0 0 0 
0 0 0 0 0 0 0 0 0 
0 0 0 0 0 0 0 0 0 
0 0 0 0 0 0 0 0 0 
0 0 0 0 0 0 0 0 0 
0 0 0 0 0 0 0 0 0 
0 0 0 0 0 0 0 0 0 
0 0 0 0 0 0 0 0 0 
0 0 0 0 0 0 0 0 0 
0 0 0 0 0 0 0 0 0 
0 0 0 0 0 0 0 0 0 
0 0 0 0 0 0 0 0 0 
0 0 0 0 0 0 0 0 0 
0 0 0 0 0 0 0 0 0 
0 0 0 0 0 0 0 0 0 
0 0 0 0 0 0 0 0 0 
0 0 0 0 0 0 0 0 0 
0 0 0 0 0 0 0 0 0 
0 0 0 0 0 0 0 0 0 
0 0 0 0 0 0 0 0 0 
0 0 0 0 0 0 0 0 0 
0 0 0 0 0 0 0 0 0 
0 0 0 0 0 0 0 0 0 
0 0 0 0 0 0 0 0 0 
0 0 0 0 0 0 0 0 0 
0 0 0 0 0 0 0 0 0 
0 0 0 0 0 0 0 0 0 
0 0 0 0 0 0 0 0 0 
0 
Cd_[1] 1 1324 double
0 0 0 0 0 0 0 0 0 
0 0 0 0 0 0 0 0 0 
0 0 0 0 0 0 0 0 0 
0 0 0 0 0 0 0 0 0 
0 0 0 0 0 0 0 0 0 
0 0 0 0 0 0 0 0 0 
0 0 0 0 0 0 0 0 0 
0 0 0 0 0 0 0 0 0 
0 0 0 0 0 0 0 0 0 
0 0 0 0 0 0 0 0 0 
0 0 0 0 0 0 0 0 0 
0 0 0 0 0 0 0 0 0 
0 0 0 0 0 0 0 0 0 
0 0 0 0 0 0 0 0 0 
0 0 0 0 0 0 0 0 0 
0 0 0 0 0 0 0 0 0 
0 0 0 0 0 0 0 0 0 
0 0 0 0 0 0 0 0 0 
0 0 0 0 0 0 0 0 0 
0 0 0 0 0 0 0 0 0 
0 0 0 0 0 0 0 0 0 
0 0 0 0 0 0 0 0 0 
0 0 0 0 0 0 0 0 0 
0 0 0 0 0 0 0 0 0 
0 0 0 0 0 0 0 0 0 
0 0 0 0 0 0 0 0 0 
0 0 0 0 0 0 0 0 0 
0 0 0 0 0 0 0 0 0 
0 0 0 0 0 0 0 0 0 
0 0 0 0 0 0 0 0 0 
0 0 0 0 0 0 0 0 0 
0 0 0 0 0 0 0 0 0 
0 0 0 0 0 0 0 0 0 
0 0 0 0 0 0 0 0 0 
0 0 0 0 0 0 0 0 0 
0 0 0 0 0 0 0 0 0 
0 0 0 0 0 0 0 0 0 
0 0 0 0 0 0 0 0 0 
0 0 0 0 0 0 0 0 0 
0 0 0 0 0 0 0 0 0 
0 0 0 0 0 0 0 0 0 
0 0 0 0 0 0 0 0 0 
0 0 0 0 0 0 0 0 0 
0 0 0 0 0 0 0 0 0 
0 0 0 0 0 0 0 0 0 
0 0 0 0 0 0 0 0 0 
0 0 0 0 0 0 0 0 0 
0 0 0 0 0 0 0 0 0 
0 0 0 0 0 0 0 0 0 
0 0 0 0 0 0 0 0 0 
0 0 0 0 0 0 0 0 0 
0 0 0 0 0 0 0 0 0 
0 0 0 0 0 0 0 0 0 
0 0 0 0 0 0 0 0 0 
0 0 0 0 0 0 0 0 0 
0 0 0 0 0 0 0 0 0 
0 0 0 0 0 0 0 0 0 
0 0 0 0 0 0 0 0 0 
0 0 0 0 0 0 0 0 0 
0 0 0 0 0 0 0 0 0 
0 0 0 0 0 0 0 0 0 
0 0 0 0 0 0 0 0 0 
0 0 0 0 0 0 0 0 0 
0 0 0 0 0 0 0 0 0 
0 0 0 0 0 0 0 0 0 
0 0 0 0 0 0 0 0 0 
0 0 0 0 0 0 0 0 0 
0 0 0 0 0 0 0 0 0 
0 0 0 0 0 0 0 0 0 
0 0 0 0 0 0 0 0 0 
0 0 0 0 0 0 0 0 0 
0 0 0 0 0 0 0 0 0 
0 0 0 0 0 0 0 0 0 
0 0 0 0 0 0 0 0 0 
0 0 0 0 0 0 0 0 0 
0 0 0 0 0 0 0 0 0 
0 0 0 0 0 0 0 0 0 
0 0 0 0 0 0 0 0 0 
0 0 0 0 0 0 0 0 0 
0 0 0 0 0 0 0 0 0 
0 0 0 0 0 0 0 0 0 
0 0 0 0 0 0 0 0 0 
0 0 0 0 0 0 0 0 0 
0 0 0 0 0 0 0 0 0 
0 0 0 0 0 0 0 0 0 
0 0 0 0 0 0 0 0 0 
0 0 0 0 0 0 0 0 0 
0 0 0 0 0 0 0 0 0 
0 0 0 0 0 0 0 0 0 
0 0 0 0 0 0 0 0 0 
0 0 0 0 0 0 0 0 0 
0 0 0 0 0 0 0 0 0 
0 0 0 0 0 0 0 0 0 
0 0 0 0 0 0 0 0 0 
0 0 0 0 0 0 0 0 0 
0 0 0 0 0 0 0 0 0 
0 0 0 0 0 0 0 0 0 
0 0 0 0 0 0 0 0 0 
0 0 0 0 0 0 0 0 0 
0 0 0 0 0 0 0 0 0 
0 0 0 0 0 0 0 0 0 
0 0 0 0 0 0 0 0 0 
0 0 0 0 0 0 0 0 0 
0 0 0 0 0 0 0 0 0 
0 0 0 0 0 0 0 0 0 
0 0 0 0 0 0 0 0 0 
0 0 0 0 0 0 0 0 0 
0 0 0 0 0 0 0 0 0 
0 0 0 0 0 0 0 0 0 
0 0 0 0 0 0 0 0 0 
0 0 0 0 0 0 0 0 0 
0 0 0 0 0 0 0 0 0 
0 0 0 0 0 0 0 0 0 
0 0 0 0 0 0 0 0 0 
0 0 0 0 0 0 0 0 0 
0 0 0 0 0 0 0 0 0 
0 0 0 0 0 0 0 0 0 
0 0 0 0 0 0 0 0 0 
0 0 0 0 0 0 0 0 0 
0 0 0 0 0 0 0 0 0 
0 0 0 0 0 0 0 0 0 
0 0 0 0 0 0 0 0 0 
0 0 0 0 0 0 0 0 0 
0 0 0 0 0 0 0 0 0 
0 0 0 0 0 0 0 0 0 
0 0 0 0 0 0 0 0 0 
0 0 0 0 0 0 0 0 0 
0 0 0 0 0 0 0 0 0 
0 0 0 0 0 0 0 0 0 
0 0 0 0 0 0 0 0 0 
0 0 0 0 0 0 0 0 0 
0 0 0 0 0 0 0 0 0 
0 0 0 0 0 0 0 0 0 
0 0 0 0 0 0 0 0 0 
0 0 0 0 0 0 0 0 0 
0 0 0 0 0 0 0 0 0 
0 0 0 0 0 0 0 0 0 
0 0 0 0 0 0 0 0 0 
0 0 0 0 0 0 0 0 0 
0 0 0 0 0 0 0 0 0 
0 0 0 0 0 0 0 0 0 
0 0 0 0 0 0 0 0 0 
0 0 0 0 0 0 0 0 0 
0 0 0 0 0 0 0 0 0 
0 0 0 0 0 0 0 0 0 
0 0 0 0 0 0 0 0 0 
0 0 0 0 0 0 0 0 0 
0 
C_[2] 1 1324 double
0 0 0 0 0 0 0 0 0 
0 0 0 0 0 0 0 0 0 
0 0 0 0 0 0 0 0 0 
0 0 0 0 0 0 0 0 0 
0 0 0 0 0 0 0 0 0 
0 0 0 0 0 0 0 0 0 
0 0 0 0 0 0 0 0 0 
0 0 0 0 0 0 0 0 0 
0 0 0 0 0 0 0 0 0 
0 0 0 0 0 0 0 0 0 
0 0 0 0 0 0 0 0 0 
0 0 0 0 0 0 0 0 0 
0 0 0 0 0 0 0 0 0 
0 0 0 0 0 0 0 0 0 
0 0 0 0 0 0 0 0 0 
0 0 0 0 0 0 0 0 0 
0 0 0 0 0 0 0 0 0 
0 0 0 0 0 0 0 0 0 
0 0 0 0 0 0 0 0 0 
0 0 0 0 0 0 0 0 0 
0 0 0 0 0 0 0 0 0 
0 0 0 0 0 0 0 0 0 
0 0 0 0 0 0 0 0 0 
0 0 0 0 0 0 0 0 0 
0 0 0 0 0 0 0 0 0 
0 0 0 0 0 0 0 0 0 
0 0 0 0 0 0 0 0 0 
0 0 0 0 0 0 0 0 0 
0 0 0 0 0 0 0 0 0 
0 0 0 0 0 0 0 0 0 
0 0 0 0 0 0 0 0 0 
0 0 0 0 0 0 0 0 0 
0 0 0 0 0 0 0 0 0 
0 0 0 0 0 0 0 0 0 
0 0 0 0 0 0 0 0 0 
0 0 0 0 0 0 0 0 0 
0 0 0 0 0 0 0 0 0 
0 0 0 0 0 0 0 0 0 
0 0 0 0 0 0 0 0 0 
0 0 0 0 0 0 0 0 0 
0 0 0 0 0 0 0 0 0 
0 0 0 0 0 0 0 0 0 
0 0 0 0 0 0 0 0 0 
0 0 0 0 0 0 0 0 0 
0 0 0 0 0 0 0 0 0 
0 0 0 0 0 0 0 0 0 
0 0 0 0 0 0 0 0 0 
0 0 0 0 0 0 0 0 0 
0 0 0 0 0 0 0 0 0 
0 0 0 0 0 0 0 0 0 
0 0 0 0 0 0 0 0 0 
0 0 0 0 0 0 0 0 0 
0 0 0 0 0 0 0 0 0 
0 0 0 0 0 0 0 0 0 
0 0 0 0 0 0 0 0 0 
0 0 0 0 0 0 0 0 0 
0 0 0 0 0 0 0 0 0 
0 0 0 0 0 0 0 0 0 
0 0 0 0 0 0 0 0 0 
0 0 0 0 0 0 0 0 0 
0 0 0 0 0 0 0 0 0 
0 0 0 0 0 0 0 0 0 
0 0 0 0 0 0 0 0 0 
0 0 0 0 0 0 0 0 0 
0 0 0 0 0 0 0 0 0 
0 0 0 0 0 0 0 0 0 
0 0 0 0 0 0 0 0 0 
0 0 0 0 0 0 0 0 0 
0 0 0 0 0 0 0 0 0 
0 0 0 0 0 0 0 0 0 
0 0 0 0 0 0 0 0 0 
0 0 0 0 0 0 0 0 0 
0 0 0 0 0 0 0 0 0 
0 0 0 0 0 0 0 0 0 
0 0 0 0 0 0 0 0 0 
0 0 0 0 0 0 0 0 0 
0 0 0 0 0 0 0 0 0 
0 0 0 0 0 0 0 0 0 
0 0 0 0 0 0 0 0 0 
0 0 0 0 0 0 0 0 0 
0 0 0 0 0 0 0 0 0 
0 0 0 0 0 0 0 0 0 
0 0 0 0 0 0 0 0 0 
0 0 0 0 0 0 0 0 0 
0 0 0 0 0 0 0 0 0 
0 0 0 0 0 0 0 0 0 
0 0 0 0 0 0 0 0 0 
0 0 0 0 0 0 0 0 0 
0 0 0 0 0 0 0 0 0 
0 0 0 0 0 0 0 0 0 
0 0 0 0 0 0 0 0 0 
0 0 0 0 0 0 0 0 0 
0 0 0 0 0 0 0 0 0 
0 0 0 0 0 0 0 0 0 
0 0 0 0 0 0 0 0 0 
0 0 0 0 0 0 0 0 0 
0 0 0 0 0 0 0 0 0 
0 0 0 0 0 0 0 0 0 
0 0 0 0 0 0 0 0 0 
0 0 0 0 0 0 0 0 0 
0 0 0 0 0 0 0 0 0 
0 0 0 0 0 0 0 0 0 
0 0 0 0 0 0 0 0 0 
0 0 0 0 0 0 0 0 0 
0 0 0 0 0 0 0 0 0 
0 0 0 0 0 0 0 0 0 
0 0 0 0 0 0 0 0 0 
0 0 0 0 0 0 0 0 0 
0 0 0 0 0 0 0 0 0 
0 0 0 0 0 0 0 0 0 
0 0 0 0 0 0 0 0 0 
0 0 0 0 0 0 0 0 0 
0 0 0 0 0 0 0 0 0 
0 0 0 0 0 0 0 0 0 
0 0 0 0 0 0 0 0 0 
0 0 0 0 0 0 0 0 0 
0 0 0 0 0 0 0 0 0 
0 0 0 0 0 0 0 0 0 
0 0 0 0 0 0 0 0 0 
0 0 0 0 0 0 0 0 0 
0 0 0 0 0 0 0 0 0 
0 0 0 0 0 0 0 0 0 
0 0 0 0 0 0 0 0 0 
0 0 0 0 0 0 0 0 0 
0 0 0 0 0 0 0 0 0 
0 0 0 0 0 0 0 0 0 
0 0 0 0 0 0 0 0 0 
0 0 0 0 0 0 0 0 0 
0 0 0 0 0 0 0 0 0 
0 0 0 0 0 0 0 0 0 
0 0 0 0 0 0 0 0 0 
0 0 0 0 0 0 0 0 0 
0 0 0 0 0 0 0 0 0 
0 0 0 0 0 0 0 0 0 
0 0 0 0 0 0 0 0 0 
0 0 0 0 0 0 0 0 0 
0 0 0 0 0 0 0 0 0 
0 0 0 0 0 0 0 0 0 
0 0 0 0 0 0 0 0 0 
0 0 0 0 0 0 0 0 0 
0 0 0 0 0 0 0 0 0 
0 0 0 0 0 0 0 0 0 
0 0 0 0 0 0 0 0 0 
0 0 0 0 0 0 0 0 0 
0 0 0 0 0 0 0 0 0 
0 0 0 0 0 0 0 0 0 
0 0 0 0 0 0 0 0 0 
0 
Cd_[2] 1 1324 double
0 0 0 0 0 0 0 0 0 
0 0 0 0 0 0 0 0 0 
0 0 0 0 0 0 0 0 0 
0 0 0 0 0 0 0 0 0 
0 0 0 0 0 0 0 0 0 
0 0 0 0 0 0 0 0 0 
0 0 0 0 0 0 0 0 0 
0 0 0 0 0 0 0 0 0 
0 0 0 0 0 0 0 0 0 