# vtk DataFile Version 4.1
Generated by LAMMPS
ASCII
DATASET POLYDATA
POINTS 1324 float
0.0600484 0.0150669 0 0.0385825 0.0486652 0 0.0141513 0.00163177 0 
0.0844792 0.0458296 0 0.137102 5.42373e-08 0 0.141587 0.0351137 0 
0.168753 4.76202e-09 0 0.195569 0.0497507 0 0.2 8.2624e-08 0 
0.2 7.63393e-08 0 0.200001 7.32878e-09 0 0.199999 1.34729e-09 0 
0.200001 2.48699e-08 0 0.200001 2.02991e-09 0 0.2 2.54838e-08 0 
0.265689 6.30447e-08 0 0.285068 3.73133e-08 0 0.323398 1.2986e-07 0 
0.369482 0.0560615 0 0.361402 6.91119e-09 0 0.400922 1.34381e-08 0 
0.416091 0.058807 0 0.445498 0.0479381 0 0.440746 6.24857e-08 0 
0.488827 0.0512779 0 0.515469 0.0530831 0 0.480695 5.5165e-08 0 
0.520698 2.24931e-08 0 0.540793 0.0517864 0 0.566269 0.0462983 0 
0.560709 7.69678e-09 0 0.594347 0.0454314 0 0.624221 0.0420969 0 
0.600766 9.1884e-08 0 0.640806 7.51557e-10 0 0.656621 0.03894 0 
0.691908 0.0363731 0 0.680861 4.00695e-08 0 0.729595 0.034051 0 
0.720949 7.87486e-09 0 0.760989 6.93393e-08 0 0.771143 0.0313898 0 
0.821095 0.0300218 0 0.801064 8.20734e-09 0 0.841127 6.22008e-08 0 
0.881029 5.25751e-08 0 0.885486 0.0356328 0 0.931214 0.0365253 0 
0.921359 1.07497e-07 0 0.979597 0.0382314 0 0.961433 3.66253e-08 0 
1.01881 0.0399095 0 1.0018 1.30807e-08 0 1.04187 1.0756e-08 0 
1.06282 0.0416128 0 1.10127 0.0402919 0 1.08234 1.48574e-08 0 
1.13874 0.0424842 0 1.17516 0.0439811 0 1.12244 1.84099e-08 0 
1.16323 7.22836e-08 0 1.20985 0.0436103 0 1.20344 7.13649e-09 0 
1.24314 0.0452276 0 1.27526 0.0454633 0 1.2471 1.0953e-08 0 
1.28919 9.40926e-11 0 1.30717 0.0444521 0 1.33931 0.0431571 0 
1.33405 1.98223e-08 0 1.3732 0.0425929 0 1.40794 0.0407192 0 
1.37519 1.01698e-08 0 1.44538 0.0389796 0 1.4205 1.31317e-08 0 
1.4608 3.57195e-09 0 1.48354 0.036845 0 1.52506 0.0372744 0 
1.5073 4.33434e-09 0 1.56574 0.0345524 0 1.54718 3.31201e-10 0 
1.61054 0.0365004 0 1.59533 9.69819e-09 0 1.63539 2.70927e-09 0 
1.65508 0.0307574 0 1.70332 0.0342538 0 1.68732 1.08184e-08 0 
1.75507 0.0213863 0 1.72696 8.56724e-09 0 1.75111 0.0538628 0 
1.80375 0.0287413 0 1.7993 0.00112559 0 1.81856 0.056407 0 
1.85464 0.0442968 0 1.84547 3.74287e-09 0 1.88342 0.0192801 0 
1.91258 0.0371825 0 1.92742 0.0070846 0 1.95065 0.0361279 0 
1.97133 0.0002111 0 1.99915 0.0274236 0 0.0613071 0.0804945 0 
0.0227298 0.10485 0 0.108454 0.0840845 0 0.155096 0.068787 0 
0.163717 0.105306 0 0.212316 0.0836001 0 0.261616 0.0643941 0 
0.27087 0.107457 0 0.305796 0.0645378 0 0.343006 0.0727797 0 
0.411627 0.0874767 0 0.477504 0.0767295 0 0.482284 0.111432 0 
0.54391 0.103279 0 0.575178 0.109164 0 0.600261 0.0991726 0 
0.629231 0.0955511 0 0.658079 0.090083 0 0.689032 0.0852788 0 
0.721768 0.0809328 0 0.756485 0.0763671 0 0.793579 0.113633 0 
0.792732 0.0708524 0 0.831152 0.107959 0 0.83096 0.065398 0 
0.870064 0.104554 0 0.868962 0.0649299 0 0.914043 0.10127 0 
0.914947 0.0655709 0 0.967944 0.101625 0 0.964317 0.0657834 0 
1.00755 0.104057 0 1.02721 0.0728914 0 1.05952 0.105178 0 
1.08103 0.0775201 0 1.11996 0.0835233 0 1.15672 0.0865548 0 
1.1912 0.0876035 0 1.22405 0.0918048 0 1.25579 0.0929625 0 
1.28669 0.0942031 0 1.31648 0.0943971 0 1.34572 0.0936933 0 
1.37477 0.0914187 0 1.40462 0.0883626 0 1.43508 0.0829996 0 
1.46869 0.0802596 0 1.50286 0.0766084 0 1.54076 0.0742057 0 
1.57754 0.0702034 0 1.58018 0.1174 0 1.61558 0.114684 0 
1.62445 0.0699852 0 1.65257 0.109601 0 1.66205 0.064849 0 
1.68962 0.103064 0 1.71569 0.0650703 0 1.73531 0.0995088 0 
1.77346 0.0877301 0 1.82159 0.0914222 0 1.86407 0.0808988 0 
1.89193 0.110711 0 1.90362 0.0735392 0 1.9304 0.102612 0 
1.95765 0.0731787 0 1.97799 0.104653 0 1.99782 0.0722114 0 
0.0427434 0.144502 0 0.0788544 0.117748 0 0.0859227 0.157246 0 
0.122291 0.128264 0 0.12782 0.167544 0 0.168402 0.143675 0 
0.213876 0.120968 0 0.21481 0.158307 0 0.263053 0.177179 0 
0.265469 0.14182 0 0.320794 0.119389 0 0.315779 0.152752 0 
0.363459 0.163415 0 0.366109 0.121439 0 0.410157 0.172952 0 
0.405409 0.132967 0 0.440703 0.127468 0 0.474015 0.145484 0 
0.515365 0.150085 0 0.534179 0.127671 0 0.56719 0.172467 0 
0.595087 0.158513 0 0.623994 0.148402 0 0.656766 0.143166 0 
0.688737 0.134527 0 0.729888 0.169789 0 0.722558 0.127999 0 
0.767075 0.160605 0 0.757359 0.120707 0 0.806023 0.151382 0 
0.845905 0.144839 0 0.887699 0.174914 0 0.888034 0.138101 0 
0.931939 0.169849 0 0.929747 0.132509 0 0.970495 0.133457 0 
0.986012 0.166797 0 1.02531 0.167236 0 1.02716 0.13351 0 
1.07159 0.137044 0 1.1131 0.120793 0 1.07732 0.170111 0 
1.13043 0.151587 0 1.16342 0.127402 0 1.17284 0.164067 0 
1.21512 0.175904 0 1.20736 0.138038 0 1.24435 0.142737 0 
1.27804 0.14692 0 1.30965 0.149991 0 1.33988 0.152698 0 
1.36856 0.149335 0 1.39766 0.150893 0 1.42418 0.140989 0 
1.45331 0.136584 0 1.48273 0.13157 0 1.51378 0.126506 0 
1.53124 0.172836 0 1.54634 0.122437 0 1.56258 0.16729 0 
1.59471 0.161532 0 1.62829 0.155869 0 1.66268 0.149722 0 
1.69788 0.1425 0 1.7345 0.137639 0 1.76996 0.126861 0 
1.80907 0.126 0 1.8137 0.168753 0 1.77757 0.174122 0 
1.84909 0.118023 0 1.85016 0.161799 0 1.88672 0.153534 0 
1.92416 0.14679 0 1.96191 0.143178 0 2.00011 0.141529 0 
0.0554619 0.192692 0 0.0294152 0.235175 0 0.0162458 0.181063 0 
0.0648617 0.234821 0 0.0950707 0.19937 0 0.134134 0.213684 0 
0.171409 0.182823 0 0.174855 0.222777 0 0.215389 0.196212 0 
0.260178 0.213004 0 0.305242 0.222851 0 0.310933 0.18828 0 
0.356868 0.1969 0 0.353723 0.231801 0 0.405183 0.207735 0 
0.448761 0.216373 0 0.452968 0.183449 0 0.494198 0.19005 0 
0.50154 0.223704 0 0.536711 0.188946 0 0.544394 0.225078 0 
0.586815 0.211889 0 0.62163 0.200677 0 0.65605 0.189126 0 
0.673428 0.224936 0 0.690895 0.179113 0 0.715156 0.211358 0 
0.753786 0.201976 0 0.778183 0.230699 0 0.79916 0.190848 0 
0.818102 0.223073 0 0.840521 0.183502 0 0.867475 0.210011 0 
0.912577 0.20547 0 0.93407 0.232843 0 0.963793 0.197477 0 
0.976375 0.228918 0 1.01472 0.203575 0 1.03538 0.232202 0 
1.06396 0.202545 0 1.11967 0.181599 0 1.1095 0.215779 0 
1.15444 0.226483 0 1.17191 0.198238 0 1.21531 0.215528 0 
1.25432 0.186449 0 1.25519 0.228885 0 1.28981 0.19467 0 
1.32293 0.201912 0 1.35434 0.20196 0 1.38465 0.206043 0 
1.41424 0.200622 0 1.44176 0.190639 0 1.47221 0.188256 0 
1.50043 0.178464 0 1.50949 0.227309 0 1.54156 0.22249 0 
1.57372 0.21608 0 1.60588 0.20741 0 1.63977 0.20233 0 
1.67333 0.194205 0 1.70798 0.188618 0 1.73552 0.226891 0 
1.74257 0.180667 0 1.76999 0.220643 0 1.80438 0.213633 0 
1.83956 0.207898 0 1.87393 0.198131 0 1.90955 0.192902 0 
1.9446 0.185459 0 1.92685 0.232192 0 1.98065 0.184507 0 
1.99457 0.22428 0 1.9616 0.232848 0 0.0359133 0.275614 0 
0.0693 0.290271 0 0.100901 0.249715 0 0.104759 0.290197 0 
0.138441 0.254832 0 0.176747 0.267317 0 0.216035 0.236751 0 
0.216419 0.275986 0 0.25824 0.24957 0 0.258346 0.287113 0 
0.303651 0.258473 0 0.299379 0.294424 0 0.344434 0.265682 0 
0.395141 0.240324 0 0.395552 0.274557 0 0.435919 0.280957 0 
0.44824 0.250204 0 0.490513 0.25498 0 0.496716 0.286709 0 
0.537671 0.288044 0 0.550423 0.257714 0 0.590725 0.248442 0 
0.599682 0.281503 0 0.636018 0.235622 0 0.638333 0.270835 0 
0.691544 0.256427 0 0.686575 0.290932 0 0.729634 0.245289 0 
0.742383 0.276938 0 0.7817 0.264496 0 0.8279 0.285722 0 
0.837434 0.251823 0 0.878283 0.241885 0 0.880956 0.275345 0 
0.925694 0.265029 0 0.983089 0.261487 0 0.962923 0.291909 0 
1.02485 0.26279 0 1.07549 0.239514 0 1.08019 0.2727 0 
1.12018 0.287405 0 1.12688 0.253323 0 1.16539 0.271454 0 
1.19553 0.245417 0 1.20956 0.288258 0 1.23816 0.262142 0 
1.29124 0.242588 0 1.2729 0.279554 0 1.3082 0.290953 0 
1.32628 0.248853 0 1.35818 0.257793 0 1.38942 0.254734 0 
1.42119 0.255084 0 1.44929 0.24177 0 1.48146 0.2421 0 
1.49929 0.280209 0 1.53269 0.274035 0 1.56597 0.265841 0 
1.5991 0.256018 0 1.63368 0.250563 0 1.65077 0.289541 0 
1.66719 0.24119 0 1.68698 0.284963 0 1.7019 0.235976 0 
1.72163 0.27522 0 1.75713 0.271028 0 1.79103 0.261395 0 
1.82622 0.257576 0 1.85934 0.246317 0 1.89433 0.243604 0 
1.9053 0.281934 0 1.93929 0.285953 0 1.96993 0.271618 0 
2.00228 0.281349 0 0.0386866 0.335295 0 0.00622435 0.320829 0 
0.0723925 0.330106 0 0.106124 0.344339 0 0.140432 0.30362 0 
0.142047 0.344051 0 0.178362 0.308109 0 0.216941 0.316869 0 
0.25696 0.32502 0 0.301148 0.330948 0 0.346665 0.301045 0 
0.341192 0.336032 0 0.38656 0.307457 0 0.391933 0.34146 0 
0.431158 0.345039 0 0.442674 0.313595 0 0.482601 0.316364 0 
0.491852 0.347994 0 0.531324 0.348794 0 0.546897 0.319054 0 
0.586842 0.313276 0 0.596622 0.344362 0 0.635434 0.335986 0 
0.648693 0.303113 0 0.69505 0.324257 0 0.733491 0.311658 0 
0.736861 0.346813 0 0.777167 0.33416 0 0.787078 0.298416 0 
0.824633 0.322311 0 0.867301 0.310662 0 0.85549 0.348592 0 
0.899215 0.336491 0 0.915699 0.29993 0 0.944144 0.325931 0 
0.988223 0.322322 0 1.01746 0.296466 0 1.03611 0.331546 0 
1.06049 0.301623 0 1.07674 0.341969 0 1.10679 0.319581 0 
1.14475 0.337984 0 1.1663 0.306698 0 1.19879 0.329543 0 
1.23813 0.349243 0 1.24197 0.312535 0 1.27916 0.324687 0 
1.30673 0.344394 0 1.34025 0.303249 0 1.33993 0.350003 0 
1.37296 0.30349 0 1.40501 0.30726 0 1.40374 0.351084 0 
1.46882 0.294997 0 1.43591 0.29673 0 1.43938 0.348482 0 
1.47257 0.335484 0 1.50855 0.327872 0 1.54299 0.315619 0 
1.57903 0.306064 0 1.58524 0.347487 0 1.61529 0.299011 0 
1.62409 0.338465 0 1.66165 0.333032 0 1.6984 0.324087 0 
1.73518 0.320472 0 1.76999 0.310209 0 1.80583 0.308339 0 
1.81331 0.347483 0 1.83892 0.296126 0 1.84843 0.348558 0 
1.87391 0.296215 0 1.88029 0.33505 0 1.91392 0.340049 0 
1.94408 0.324751 0 1.9761 0.33461 0 0.0405591 0.374604 0 
0.0089698 0.385994 0 0.0730312 0.388282 0 0.107555 0.384477 0 
0.142678 0.393965 0 0.179102 0.353144 0 0.179769 0.394157 0 
0.217384 0.357145 0 0.21787 0.398507 0 0.257827 0.363474 0 
0.25682 0.402133 0 0.29812 0.36747 0 0.300328 0.404527 0 
0.345057 0.37158 0 0.339168 0.406831 0 0.383924 0.374889 0 
0.390703 0.408927 0 0.428469 0.409899 0 0.439581 0.377724 0 
0.478172 0.378397 0 0.488198 0.410255 0 0.526208 0.410122 0 
0.541963 0.379674 0 0.580713 0.375673 0 0.590424 0.406832 0 
[...]
POINT_DATA 1324
FIELD FieldData 9
id 1 1324 int
97 146 47 147 48 98 49 99 50 
1176 1177 1178 4 5 6 7 8 9 
1181 10 11 55 57 12 59 60 13 
14 61 62 15 63 64 16 17 65 
66 18 67 19 20 68 69 21 22 
23 70 71 24 72 25 73 26 27 
74 75 28 76 77 29 30 78 31 
79 80 32 33 81 82 34 83 84 
35 85 36 37 86 87 38 88 39 
89 40 41 90 91 42 92 43 141 
93 44 142 143 45 94 144 95 145 
46 96 196 245 197 148 198 149 100 
150 1179 1180 54 58 56 108 109 110 
111 112 113 114 115 164 116 165 117 
166 118 167 119 168 120 169 121 170 
122 123 124 125 126 127 128 129 130 
131 132 133 134 135 136 137 185 186 
138 187 139 188 140 189 190 191 192 
242 193 243 194 244 195 295 246 296 
247 297 248 199 249 250 200 1182 1185 
1186 1183 1187 1184 104 105 106 107 157 
158 159 160 161 211 162 212 163 213 
214 264 215 265 216 217 266 267 218 
219 171 268 220 172 221 222 173 174 
175 176 177 178 179 180 181 182 183 
232 184 233 234 235 236 237 238 239 
240 289 288 241 290 291 292 293 294 
345 394 344 395 346 347 298 348 299 
300 1191 1188 1189 1192 1190 204 154 155 
205 156 206 207 208 209 259 210 260 
261 311 262 312 263 313 314 364 315 
365 316 366 317 269 318 319 270 271 
223 272 224 225 226 227 228 229 230 
231 280 281 282 283 284 285 286 336 
287 337 338 339 340 341 342 391 343 
393 392 444 445 396 446 397 398 349 
399 350 400 1194 1197 1195 1193 1196 304 
254 255 305 306 256 257 307 258 308 
309 359 310 360 361 412 362 363 413 
414 415 465 416 367 417 418 368 369 
320 370 321 273 322 323 274 275 276 
277 278 279 329 330 331 332 333 383 
334 384 335 385 386 387 388 389 390 
440 441 442 443 494 493 495 496 447 
497 448 449 450 1200 1198 1201 1199 1202 
404 354 355 405 406 356 357 407 408 
358 409 410 460 461 411 462 463 513 
514 464 515 516 466 517 467 518 468 
469 419 420 421 371 372 373 324 374 
325 326 376 328 327 377 378 379 380 
381 431 382 432 433 434 435 436 437 
487 438 488 439 489 490 491 492 544 
543 545 546 547 498 548 499 549 500 
550 1203 1206 1204 1207 1205 1208 504 454 
455 505 506 456 457 507 508 458 459 
509 510 511 512 562 563 564 565 566 
618 567 568 622 569 519 570 571 470 
520 521 471 472 422 423 424 425 375 
426 427 428 479 429 480 430 481 482 
483 484 534 485 535 486 536 537 538 
539 540 541 542 594 593 595 596 597 
598 599 600 1209 1210 1211 554 555 556 
557 558 608 559 609 610 560 611 561 
612 613 614 615 616 617 619 621 620 
623 624 576 575 572 573 574 522 523 
473 474 475 476 477 528 478 579 529 
580 530 531 581 582 532 533 583 584 
585 586 587 588 589 590 591 592 644 
643 645 695 646 647 697 648 698 649 
699 650 700 1215 1212 1213 1216 1217 1214 
604 654 655 605 606 656 657 607 658 
659 660 661 662 663 665 667 671 625 
675 1249 1252 1253 1254 1259 1260 1261 1262 
1268 1269 1270 1273 1279 1280 1283 1284 1285 
1290 1291 1292 1296 1297 1298 1299 1303 1304 
1305 1309 1310 1311 1316 1317 1318 1320 1321 
627 677 1250 1251 1255 1256 1257 1258 1263 
1264 1265 1266 1267 1271 1272 1274 1275 1276 
1277 1278 1281 1282 1286 1287 1288 1289 1293 
1294 1295 1300 1301 1302 1306 1307 1308 1312 
1313 1314 1315 1319 1322 1323 1324 577 628 
678 727 524 775 525 776 526 777 527 
728 578 679 629 630 680 681 631 682 
632 633 683 684 634 685 635 636 637 
638 639 640 641 642 694 744 693 745 
696 746 747 748 749 750 1218 1219 1222 
1223 1220 704 754 755 705 706 756 757 
707 708 758 759 709 710 711 712 664 
713 714 666 668 669 670 673 674 725 
726 722 723 724 772 773 774 823 824 
825 826 827 778 828 729 779 730 780 
731 732 733 734 735 687 686 736 737 
688 738 689 739 690 740 691 742 692 
794 743 795 796 797 798 799 849 800 
850 1221 1224 1225 1226 804 854 855 805 
806 856 857 807 808 858 809 760 810 
761 811 762 763 764 715 716 717 718 
672 719 720 721 770 771 821 822 872 
873 874 875 876 877 878 829 879 830 
781 831 832 782 833 783 834 784 785 
786 787 788 789 790 741 791 792 793 
844 845 846 897 847 848 898 899 900 
1227 1230 1228 1231 1229 1232 904 954 905 
955 906 956 957 907 908 859 909 910 
860 861 812 862 813 863 814 765 815 
766 816 767 817 768 818 769 819 820 
870 871 922 923 924 925 975 926 976 
927 928 929 930 880 931 881 882 883 
884 885 835 886 836 887 837 838 839 
840 841 842 843 895 894 946 896 947 
948 949 950 1000 1233 1234 1237 1235 1238 
1004 1005 1056 1006 1007 1008 958 1009 959 
960 961 911 962 912 913 914 864 915 
865 866 917 867 918 868 869 919 920 
971 921 972 973 974 1024 1025 1026 1027 
977 1028 978 979 980 981 982 932 983 
933 984 934 935 936 937 888 938 939 
889 940 890 891 892 893 945 995 944 
996 997 1048 998 1049 999 1050 1100 1236 
1239 1240 1241 1054 1105 1055 1106 1057 1058 
1059 1060 1010 1061 1011 1012 1013 963 1014 
964 1015 965 966 916 967 968 969 1020 
970 1021 1022 1023 1074 1075 1076 1077 1078 
1079 1080 1029 1030 1031 1032 1033 1034 1035 
1036 985 986 1037 987 988 989 990 991 
941 992 942 993 943 994 1045 1046 1097 
1047 1098 1099 1149 1150 1242 1243 1244 1154 
1104 1156 1158 1107 1108 1109 1110 1111 1112 
1113 1062 1114 1063 1115 1064 1065 1066 1067 
1016 1068 1017 1018 1069 1070 1019 1122 1071 
1123 1072 1124 1073 1125 1126 1127 1128 1129 
1130 1131 1132 1081 1133 1082 1134 1083 1084 
1085 1086 1087 1088 1038 1039 1089 1090 1040 
1091 1041 1092 1042 1093 1043 1044 1096 1146 
803 1147 802 1148 801 753 1245 1246 1247 
1155 1157 1159 1160 1161 1162 1163 1164 1165 
1166 1167 1168 1116 1117 1169 1118 1170 1119 
1171 1120 1172 1121 1173 1174 1175 1153 1152 
1151 1103 1102 1101 1053 1052 1051 1003 1002 
1135 1001 1136 1137 953 1138 952 951 1139 
1140 903 1141 902 1142 901 1143 853 1144 
852 1094 1145 1095 51 3 2 1 1248 
676 626 752 751 703 701 702 653 651 
652 603 601 602 553 551 552 503 501 
502 453 451 452 403 402 353 401 352 
303 351 302 253 301 252 251 203 202 
201 153 152 151 103 102 101 53 52 
851 
C_[0] 1 1324 double
0 0 0 0 2.9007152711e-21 4.3812886855e-18 1.4007306294e-20 7.1844288265e-15 3.3139965196e-15 
3.6820397085e-16 1.1046225281e-15 3.6817536976e-16 1.1046021391e-15 1.1046448927e-15 3.6819926495e-16 7.7906400585e-10 1.34847976e-09 3.3392101835e-09 
6.3924445982e-08 6.2558226474e-09 1.1150792771e-08 1.128751063e-07 1.0194670282e-07 1.6274253401e-08 1.3577234427e-07 1.6525285115e-07 2.160072355e-08 
2.4651919089e-08 1.7172455848e-07 1.4210825854e-07 2.2965702902e-08 1.1811891539e-07 8.250727109e-08 1.7051565881e-08 1.0795283927e-08 5.2416633374e-08 
3.0273623643e-08 6.1490089786e-09 1.5712706577e-08 3.3636031848e-09 1.7971156923e-09 6.976114544e-09 2.6186215801e-09 9.1987547599e-10 4.3285940793e-10 
1.8185524806e-10 9.8268421449e-10 3.3184628833e-10 7.6841159125e-11 9.6363123907e-11 2.558190469e-11 3.202170355e-11 7.8221494843e-12 2.3992102424e-12 
9.1009842069e-12 2.1790477298e-12 6.0348933058e-13 6.4496644668e-13 1.737833197e-13 1.4622342125e-13 3.2862488829e-14 4.2887464851e-14 7.0688896327e-15 
1.0786558617e-14 2.5818848127e-15 1.1976635043e-15 2.003846824e-16 5.7658447735e-16 1.1762160489e-16 2.5790595762e-17 2.1094278648e-17 3.2101369532e-18 
3.3551768429e-18 4.3368879927e-19 3.4822826554e-19 4.3397832823e-20 5.5952581414e-20 6.255517769e-21 3.8415941162e-21 6.1612242092e-22 4.4719087733e-22 
5.5107914785e-23 3.2225488479e-23 3.3892204355e-24 3.933119883e-24 3.4795127919e-25 2.0464000296e-25 1.677163329e-26 2.3240465166e-26 5.8598251985e-26 
1.4699080417e-27 6.5781480876e-28 1.7927198761e-27 1.6884685755e-28 5.7844915035e-29 1.5942661702e-29 3.6811532003e-34 3.2900080121e-35 5.0083815927e-36 
0 0 0 0 0 1.5163790243e-15 2.6341766577e-14 9.6002176763e-10 8.5879032226e-09 
6.8683108077e-08 2.5876015878e-08 7.5347522066e-08 3.5322077553e-07 3.9244337904e-07 1.9028494548e-06 1.6333812162e-06 2.007948326e-06 1.1562908258e-06 
8.3029910728e-07 5.0253134729e-07 2.8991357689e-07 1.5699786723e-07 7.6744523064e-08 2.1878491862e-07 3.3209667487e-08 8.4931183579e-08 1.3203335077e-08 
3.135183603e-08 5.4892804493e-09 9.9096520905e-09 1.9376815901e-09 2.5601578448e-09 5.4123072056e-10 8.9169994534e-10 1.2871106463e-10 1.7243844515e-10 
2.5840998184e-11 7.77836174e-12 2.2372617941e-12 4.9377337033e-13 1.3950840772e-13 3.5189413745e-14 8.5270089116e-15 2.0307485474e-15 4.582244541e-16 
9.5541965469e-17 1.8944565095e-17 3.1700265897e-18 5.4330157388e-19 7.918618221e-20 9.816528788e-21 1.2133767559e-21 6.3321897058e-21 8.8266880877e-22 
1.0431338315e-22 1.0260737458e-22 1.1516971093e-23 1.1093737289e-23 6.7356234005e-25 7.4228204842e-25 6.4019345246e-26 5.2070487208e-27 3.6674250777e-28 
1.6372928486e-28 1.9637239878e-33 7.7983224318e-34 2.2415680473e-35 4.4357612267e-37 0 0 0 0 
0 1.8575011543e-17 2.4855925901e-13 1.0050695493e-08 7.5678889066e-08 1.5089417436e-06 3.080056051e-07 3.9258135358e-07 1.6418226069e-06 
5.541446156e-06 1.0460289376e-06 1.4448230662e-05 2.6391557176e-06 2.7450689932e-06 7.5151801976e-06 1.0799966889e-05 4.8440290349e-06 2.7578499596e-05 
1.4120449599e-05 7.620593651e-06 4.596924761e-06 2.3214915092e-06 5.5161292542e-06 1.1516186016e-06 2.2869179617e-06 5.244254693e-07 7.9497335789e-07 
2.8721666713e-07 3.3742541682e-07 8.6460242768e-08 9.2839752346e-08 2.5745962373e-08 8.2934934219e-09 1.6793898837e-08 4.8432925375e-09 1.4899513005e-09 
3.5380178546e-10 4.5040722216e-11 8.7632974772e-10 6.2471878399e-11 7.7576083302e-12 1.4537520588e-11 3.0789292452e-12 1.5733297627e-12 3.134011717e-13 
7.5618027413e-14 1.8270078756e-14 4.4486569542e-15 9.6719834991e-16 2.2686321422e-16 4.2102004267e-17 8.4645069425e-18 1.5468107087e-18 2.6233779445e-19 
3.3549720538e-19 4.3375276663e-20 5.6441325454e-20 8.8738317236e-21 1.296811633e-21 1.7457719081e-22 2.1288490508e-23 2.4566718597e-24 2.5831340595e-25 
2.7471568815e-26 6.7159589852e-26 5.9150451034e-25 2.2500534733e-27 7.1298613105e-27 7.0470373253e-28 3.6985469708e-33 1.1047091412e-34 0 
0 0 0 0 0 3.2942025798e-14 1.7048910041e-12 1.1746239481e-11 4.8036681615e-07 
6.7658454312e-06 2.9968108077e-05 7.0984878148e-06 2.2365132728e-05 9.0703487723e-05 5.939220798e-05 0.00011758872072 3.1872854548e-05 5.2463956508e-05 
0.00019660256132 5.4836150624e-05 0.00021029222885 0.00011534213556 5.8332020684e-05 2.7663731735e-05 8.1201311428e-05 1.2942303268e-05 3.1069930855e-05 
1.2417538519e-05 2.2349819474e-05 3.8873073301e-06 7.5384229041e-06 1.345271994e-06 1.7643958348e-06 4.8079671667e-07 5.5965546997e-07 9.0120171469e-08 
1.399162494e-07 2.1340867851e-08 2.0499220774e-08 3.7163532491e-09 2.4032050268e-10 8.4563788952e-10 1.3826622888e-10 3.8947017877e-11 7.5590116633e-12 
5.7326810807e-13 1.4210906976e-12 1.2592491073e-13 3.0169864544e-14 6.3548693224e-15 1.4987747607e-15 2.7988592969e-16 5.5107332438e-17 1.0544789727e-17 
1.8914219112e-18 3.2877663486e-18 5.8530977797e-19 9.0905461463e-20 1.4188905711e-20 2.0764893235e-21 2.8363024836e-22 3.8397039142e-23 1.5418781345e-23 
4.7425016753e-24 2.0409667067e-24 2.518798245e-25 3.0410023158e-26 3.4902392147e-27 2.3836299943e-32 1.3108982579e-33 1.0469528716e-32 0 
0 5.7795359741e-34 0 0 0 0 9.2025050626e-13 8.0849201244e-11 2.9465158353e-06 
1.5711550981e-05 3.0975474533e-05 0.00013975020934 0.00012421293403 0.00050813871118 0.00033583468591 0.00021152207576 0.00079496415254 0.0013757360329 
0.00044506994327 0.00063290826487 0.0019919785619 0.0019792252144 0.00068423211471 0.00039616069293 0.0011507102007 0.00018514732585 0.00054739800168 
0.00019729063776 0.0005441960054 7.5000602794e-05 0.00015850480294 5.251201124e-05 3.091793299e-05 1.1686143792e-05 3.2582442807e-06 6.1976430695e-06 
1.394853488e-06 2.0817761251e-07 6.0830608653e-07 4.8955150229e-08 4.9980503737e-09 6.8073267748e-09 1.4440918442e-09 7.5151902637e-10 1.6624747948e-10 
3.0469410985e-11 2.484281042e-11 4.7380562324e-12 2.8448230372e-13 1.0793532425e-12 2.0522630167e-13 5.5786225856e-14 1.2562289404e-14 2.4780957751e-15 
5.0220812349e-16 9.7209177469e-17 1.849182436e-17 1.1060847227e-17 1.7942918559e-18 2.7260342811e-19 4.1791183749e-20 5.9950556993e-21 3.1082972819e-21 
8.4291921681e-22 3.9838850247e-22 1.1662860077e-22 5.1120267448e-23 6.6019841123e-24 8.4067584524e-25 1.0556353548e-25 1.3347639029e-26 1.6276478882e-27 
5.7840927151e-32 4.5848680382e-33 8.0002563817e-35 0 0 0 0 0 8.7524523713e-12 
5.7172797259e-11 4.755024624e-10 8.3071444382e-05 0.00062780355316 0.0020857159269 0.0013192719207 0.0047290434091 0.0026404096985 0.0088876254067 
0.012542067897 0.0044763994024 0.0054565935925 0.014507564078 0.013117632493 0.0051436991907 0.0032566488043 0.0072447068129 0.0036216744395 
0.0013315417731 0.0011677934219 0.00042224159644 0.0008410745751 0.00026318275942 0.00010663364755 6.3999899699e-05 1.5908379023e-05 3.5043520197e-05 
7.7668908047e-06 3.0932346467e-06 1.4916679001e-06 3.0894184796e-07 9.4836124525e-08 5.1691960982e-08 1.851894446e-08 9.5775967534e-09 2.8935512136e-09 
5.3859131208e-10 2.1438164307e-10 4.6594548358e-11 7.2749213571e-12 5.7388554738e-12 9.4053074597e-13 2.6451107994e-13 4.7137188025e-14 4.7559734535e-14 
8.73106216e-15 1.7930106769e-15 1.9673103799e-15 6.0898361112e-17 3.3751869301e-16 3.2731212575e-16 6.0964653266e-17 8.9539000631e-18 1.4173868796e-18 
1.8594359201e-19 1.3960821599e-19 2.4181773682e-20 1.6025975882e-20 1.8684973939e-21 2.2473306964e-22 2.6936373966e-23 3.3890519859e-24 4.2194057834e-25 
2.7659973794e-25 5.5285523906e-26 3.461126457e-26 7.0141655694e-27 5.1155248629e-27 3.8456321694e-32 3.4589744453e-33 0 0 
0 0 0 3.4539502602e-10 2.8878398209e-09 1.7393370406e-08 0.00043345594013 0.0023273218504 0.0028086895152 
0.012727667847 0.0081124447707 0.030639003239 0.016649915882 0.051505542786 0.025976209339 0.072729316101 0.081920770183 0.034339700104 
0.035325373479 0.076678415977 0.062044993507 0.027962719483 0.017974113872 0.032184230726 0.016681679176 0.0070262665998 0.003001557612 
0.0053581370071 0.0020302475287 0.00052452698777 0.00015081293702 0.00033053827442 9.315294386e-05 2.7074218954e-05 7.6581486691e-06 1.6718004818e-06 
2.0774833293e-06 4.3349414197e-07 1.2448755341e-07 4.9527358741e-08 1.9585417101e-08 1.8414854015e-09 6.258200219e-09 1.5071724143e-09 1.1029353872e-10 
3.9393991683e-10 1.0242257782e-10 2.7283464474e-11 5.8390522232e-12 2.0324522951e-12 4.1520994801e-13 7.993240639e-14 1.6817120543e-14 9.9202167128e-15 
3.0941685959e-15 4.8782186894e-16 7.7154970326e-17 1.0956776266e-17 1.017983801e-17 1.2524073898e-18 1.0523459071e-18 1.0606864201e-19 1.2260138079e-20 
1.3085668161e-21 1.4636302143e-22 1.3084985907e-22 1.7557495009e-23 1.4660814822e-23 2.0714608426e-24 1.8466410521e-24 2.2400556725e-25 3.2262326386e-26 
4.2626835729e-27 3.9425242777e-32 3.0231073166e-33 0 0 0 0 0 2.2731463726e-09 
1.4627136978e-07 0.014392241063 0.057104221518 0.10586131989 0.14855676066 0.17162953406 0.17579521675 0.15558042778 0.10532498435 
0.067047440219 0.026243925046 0.05158271987 0.011646013849 0.019117608549 0.0075225296502 0.003493721615 0.0027533996685 0.0011588742621 
0.00096535741608 0.00037480389564 0.00012463829395 5.8014834225e-05 1.5531446768e-05 1.2165461034e-05 1.604709021e-06 2.1258349594e-06 4.0917191035e-07 
9.1610783839e-08 2.0227771813e-08 3.1444826663e-09 2.1450416403e-09 8.7604758618e-10 1.9458361545e-10 6.1807063475e-11 2.7468811866e-11 9.6310677099e-12 
2.1067539953e-12 4.3051531704e-13 9.8375724126e-14 1.3968550758e-14 2.126209623e-15 3.7993492562e-16 1.9086839158e-16 3.9671401861e-17 2.067316363e-17 
2.5732805075e-18 1.1547600106e-18 1.3934689721e-19 1.6421033572e-19 1.9111237978e-20 1.1241120395e-20 1.2192705002e-21 1.5629501834e-21 1.6602816188e-22 
1.8229278575e-23 2.0892082756e-24 2.74559359e-25 3.5781115663e-26 5.1472573319e-27 4.3415312378e-32 3.8068579018e-33 0 1.8469939859e-06 
3.1055443936e-06 3.7248351783e-06 0.99999632326 2.5876490943e-06 3.5872398203e-06 0.99999630083 3.6452486802e-06 0.99999638628 0.11682567214 
0.8822163967 0.25235530258 0.74647527592 0.67378833992 0.31714264611 0.34744065228 0.62646963819 0.5792726024 0.35157196064 
0.32774745472 0.49581357077 0.40961434838 0.26019841381 0.19309333272 0.25106041615 0.16065304489 0.097387020848 0.065854971298 
0.030870936137 0.01125053644 0.0042317130544 0.001696755854 0.00057864044017 0.00010118999403 2.0511161255e-05 3.4472925936e-06 3.2574517565e-07 
5.6153763953e-07 4.454449678e-08 7.7274887641e-08 5.8218556834e-08 4.3398244636e-08 9.899031408e-08 7.6254002732e-08 5.7364886832e-08 4.2714578623e-08 
1.2448043293e-07 9.7750372952e-08 7.5348705194e-08 6.9521332531e-08 1.2489315794e-07 9.6968854921e-08 6.2468184598e-08 8.0944179719e-08 1.0600503093e-07 
1.6221813755e-07 1.2687825462e-07 9.7422792079e-08 5.6236894547e-08 7.342063267e-08 9.7572246519e-08 1.284719683e-07 1.6839418315e-07 1.3133047883e-07 
1.0022191899e-07 9.008594641e-08 1.1976510212e-07 1.5568317713e-07 1.7651178336e-07 1.3798528349e-07 1.053109317e-07 1.1196419636e-07 1.46305152e-07 
1.7731275495e-09 2.9215960916e-09 3.3850528996e-08 2.5933746584e-08 3.2952358098e-08 2.5620909032e-08 2.045379164e-08 1.6516065175e-08 3.2465189092e-08 
2.567903403e-08 2.0763605853e-08 1.6812282671e-08 1.3323114737e-08 4.5667432896e-08 5.5638114243e-08 2.6628694084e-08 3.2983832832e-08 1.7306801029e-08 
1.373538022e-08 1.0616879577e-08 4.0533489793e-08 4.9652331398e-08 1.943299332e-08 2.4186387621e-08 1.4197168823e-08 1.0964869564e-08 2.9727518343e-08 
3.6300608678e-08 4.4563134199e-08 1.4699770384e-08 1.1370283144e-08 8.5457328986e-09 1.394109077e-08 1.7879737619e-08 2.2381415752e-08 1.3011526017e-08 
1.5239860189e-08 1.1834045858e-08 8.9366871013e-09 1.6732603933e-08 9.3621841464e-09 1.2339162967e-08 1.5878829873e-08 8.1751969283e-10 4.9741427006e-10 
7.3294570755e-10 1.8922571295e-09 1.9425389678e-12 3.1622619073e-12 3.9579563049e-13 3.931996801e-13 5.0289118525e-14 5.0250748691e-14 8.4031172923e-15 
4.0656148845e-15 7.5546285235e-16 1.1902330609e-16 3.8073376531e-17 4.6147722593e-18 6.9903727575e-18 8.7703705863e-19 4.1769845038e-19 7.2194930606e-20 
2.9024864899e-20 3.2317984825e-21 5.1945978704e-21 5.1943190768e-22 2.6828211507e-22 4.6873958819e-23 2.7925106856e-23 3.1834317524e-24 3.7878518597e-25 
5.0412985123e-26 7.2287804366e-27 5.9801443403e-32 2.6982754007e-07 7.5446285109e-07 0.99999736992 0.99999870187 0.99999248196 0.99999998998 
0.99999734921 1 0.99999999827 0.99999986788 0.98704255455 0.94316230897 0.88762996438 0.83117033067 0.92390593072 
0.86279127436 0.75271408893 0.66304759901 0.74108320815 0.60611391544 0.49423603272 0.35617981394 0.36927305683 0.23159925913 
0.17326352647 0.093922828437 0.093081792004 0.043165767058 0.034537426247 0.013819902016 0.0046726988235 0.0016191345069 0.00028131444997 
0.00055165606842 0.00017467033893 4.7884005314e-05 9.7243006758e-06 5.3637478308e-06 2.2337093073e-06 5.1580111403e-07 1.1615220996e-07 7.9696777102e-09 
1.0990419678e-08 8.6744199067e-09 1.8728582572e-09 5.2669792645e-10 3.1392843159e-10 9.1953816132e-11 1.6436729414e-11 2.5472174139e-11 5.5764964006e-12 
1.2620027495e-12 2.1445355105e-13 3.0756134956e-14 4.5513576811e-15 3.1831197605e-15 4.0345396623e-16 3.0544107435e-16 2.3342727461e-17 1.6667028859e-17 
1.0617828137e-18 1.0782770229e-19 1.0499615268e-20 8.0829998819e-22 8.2771221097e-23 6.0763388504e-25 5.0289589821e-24 8.6704984436e-24 1.0127872857e-24 
7.8707993068e-26 1.2561733412e-25 1.0299333897e-26 1.7244298458e-26 9.1275587518e-32 1.2987583923e-31 6.6871228468e-07 3.8700819464e-06 4.2076619804e-06 
0.99999672363 0.99999339208 0.99999962966 1 0.99999999974 0.99999998605 0.99785825509 0.99953011797 0.98688604498 
0.99613267492 0.96376946683 0.98553508488 0.96139995242 0.90291979506 0.81157166338 0.81703985163 0.67506123611 0.618054935 
0.44496709286 0.41298672824 0.25476404035 0.21515626994 0.11561421986 0.10182326049 0.040165864363 0.014213885488 0.015791186832 
0.0049621360245 0.00488252368 0.0015167879166 0.00044487452928 0.00012424421896 6.1181012006e-05 1.9132806435e-05 5.5316264321e-06 1.7736382307e-06 
3.7580497193e-07 2.6703983174e-07 7.6671412106e-08 1.9254842861e-08 6.288852266e-09 1.4489255795e-09 4.5399216317e-10 1.0291742595e-10 4.2283707849e-11 
1.0188237923e-11 1.8881912067e-12 3.8113904866e-13 8.0167317298e-14 1.3411686699e-14 1.9151996872e-15 2.1123185596e-16 3.0945788561e-16 2.8428099856e-17 