# vtk DataFile Version 4.1
Generated by LAMMPS
ASCII
DATASET POLYDATA
POINTS 1324 float
0.0428698 0.00958007 0 0.0225686 0.0538869 0 0.00417967 0.0232373 0 
0.0716745 0.0569765 0 0.0796843 0.0247789 0 0.104315 0.00322382 0 
0.130979 0.0330279 0 0.152273 3.19427e-09 0 0.184295 0.0364871 0 
0.17916 7.84987e-09 0 0.235076 0.0436864 0 0.200859 1.65133e-07 0 
0.200001 2.48797e-09 0 0.2 6.86079e-08 0 0.200855 1.18137e-07 0 
0.200002 4.12733e-08 0 0.20008 1.64784e-07 0 0.200865 2.08374e-08 0 
0.2 2.89952e-08 0 0.200001 1.15457e-08 0 0.274117 3.7712e-08 0 
0.286217 1.45394e-08 0 0.325665 3.72315e-08 0 0.362256 4.3921e-08 0 
0.401516 9.53078e-08 0 0.375528 0.0567524 0 0.441328 0.0561643 0 
0.441182 1.41372e-09 0 0.484726 0.0529859 0 0.481066 1.43923e-08 0 
0.52103 4.51414e-08 0 0.531291 0.0445432 0 0.569606 0.0467304 0 
0.561103 1.37681e-07 0 0.594738 0.0520625 0 0.622238 0.0583122 0 
0.641584 0.0474247 0 0.601093 8.75061e-09 0 0.641104 1.0474e-08 0 
0.666929 0.0521244 0 0.691141 0.0471194 0 0.681159 2.09498e-08 0 
0.716775 0.0436285 0 0.744776 0.0399869 0 0.721289 6.1477e-08 0 
0.761418 2.95579e-08 0 0.775426 0.0355023 0 0.809811 0.0280141 0 
0.801577 7.27682e-09 0 0.858028 0.0204395 0 0.841652 2.07531e-09 0 
0.88181 5.4734e-08 0 0.921849 2.9162e-08 0 0.94478 0.0263407 0 
0.962247 5.35669e-08 0 0.985358 0.0554045 0 1.01985 0.0411628 0 
1.00237 1.45197e-08 0 1.04243 1.79776e-08 0 1.04282 0.0551048 0 
1.08262 0.0457631 0 1.08283 1.62475e-08 0 1.12245 0.0433916 0 
1.16 0.0480589 0 1.12295 3.14141e-08 0 1.16365 4.70551e-09 0 
1.1935 0.0454796 0 1.2257 0.0494489 0 1.20383 6.6926e-09 0 
1.25644 0.0471242 0 1.28611 0.0479745 0 1.24743 1.24493e-08 0 
1.2895 3.4395e-09 0 1.31482 0.0488177 0 1.34278 0.0477109 0 
1.33437 1.88605e-08 0 1.37133 0.0467908 0 1.3999 0.0439367 0 
1.37553 2.56111e-09 0 1.43077 0.0413434 0 1.46279 0.0393217 0 
1.4226 7.63539e-10 0 1.47168 3.06193e-08 0 1.49721 0.0334009 0 
1.52589 5.15555e-08 0 1.53906 0.0321528 0 1.57104 2.81668e-09 0 
1.59073 0.0278466 0 1.63042 0.0305125 0 1.63896 7.88774e-08 0 
1.68467 0.0369494 0 1.68207 0.00332984 0 1.65586 0.058637 0 
1.71291 0.0581774 0 1.72416 0.02425 0 1.74933 0.00403499 0 
1.74623 0.0492973 0 1.7924 0.00559418 0 1.80156 0.035361 0 
1.83042 0.0465199 0 1.83645 0.00135073 0 1.85174 0.0261147 0 
1.89115 0.00133144 0 1.90648 0.0222454 0 1.93159 0.00176984 0 
1.96971 0.0357729 0 0.0155935 0.0876664 0 0.066039 0.0894398 0 
0.112574 0.089604 0 0.144932 0.0678195 0 0.17084 0.100185 0 
0.195121 0.0741864 0 0.238457 0.0712104 0 0.224836 0.110254 0 
0.277722 0.0948671 0 0.291703 0.0624386 0 0.334869 0.111404 0 
0.334415 0.0627099 0 0.382938 0.109915 0 0.413633 0.0657805 0 
0.436245 0.116755 0 0.486885 0.0822196 0 0.537904 0.0822776 0 
0.567769 0.104028 0 0.614747 0.101919 0 0.645289 0.113445 0 
0.689797 0.0995385 0 0.735435 0.102151 0 0.757504 0.097326 0 
0.783189 0.0924021 0 0.80833 0.0855246 0 0.834318 0.0786703 0 
0.861582 0.0735364 0 0.888367 0.0637568 0 0.927336 0.115862 0 
0.918213 0.0638935 0 0.957785 0.109798 0 0.94984 0.0601581 0 
0.989196 0.10244 0 1.02178 0.100417 0 1.05457 0.0964182 0 
1.09456 0.101157 0 1.1004 0.0668443 0 1.14392 0.100983 0 
1.17597 0.0832852 0 1.19429 0.109359 0 1.23311 0.0936 0 
1.26921 0.0968592 0 1.29944 0.102563 0 1.32819 0.101999 0 
1.35658 0.102301 0 1.38343 0.100338 0 1.40984 0.0988466 0 
1.43541 0.0975914 0 1.4603 0.0945948 0 1.48455 0.0892411 0 
1.50903 0.0832775 0 1.53412 0.077781 0 1.56119 0.0691762 0 
1.59016 0.0653768 0 1.62363 0.0648983 0 1.71693 0.11457 0 
1.74731 0.109032 0 1.77806 0.0998524 0 1.8108 0.0931029 0 
1.84585 0.0835646 0 1.87175 0.117505 0 1.88823 0.0733179 0 
1.90421 0.106659 0 1.92685 0.0638447 0 1.93806 0.0967847 0 
1.97653 0.0954164 0 1.98225 0.0637984 0 0.0370715 0.132633 0 
0.069538 0.17351 0 0.0768189 0.130993 0 0.11721 0.133148 0 
0.141095 0.176239 0 0.157677 0.137056 0 0.199107 0.14149 0 
0.244477 0.148619 0 0.286797 0.135878 0 0.290966 0.172298 0 
0.335229 0.151856 0 0.38696 0.142372 0 0.435719 0.157304 0 
0.478536 0.128375 0 0.485151 0.173065 0 0.517052 0.13316 0 
0.552596 0.141713 0 0.591196 0.149471 0 0.628382 0.146995 0 
0.666433 0.153634 0 0.700029 0.119444 0 0.720433 0.149611 0 
0.757087 0.167299 0 0.782914 0.151874 0 0.809914 0.143854 0 
0.83811 0.135986 0 0.868137 0.129439 0 0.898767 0.168133 0 
0.896611 0.120113 0 0.934107 0.161359 0 0.970531 0.152696 0 
1.00639 0.147129 0 1.04145 0.140967 0 1.07843 0.140554 0 
1.11598 0.137652 0 1.15398 0.139858 0 1.19363 0.14467 0 
1.2438 0.125867 0 1.25296 0.156988 0 1.29261 0.161601 0 
1.32384 0.153008 0 1.36911 0.154455 0 1.411 0.158199 0 
1.44548 0.158812 0 1.47713 0.157597 0 1.50642 0.154462 0 
1.53446 0.152139 0 1.55967 0.1446 0 1.58628 0.144397 0 
1.60959 0.135995 0 1.63539 0.131815 0 1.66126 0.126132 0 
1.6885 0.120869 0 1.69686 0.171326 0 1.72385 0.163207 0 
1.75228 0.156912 0 1.78004 0.146901 0 1.80963 0.137806 0 
1.84089 0.129552 0 1.87299 0.169921 0 1.9038 0.159402 0 
1.93507 0.149997 0 1.96763 0.143374 0 2.00121 0.136897 0 
0.0585623 0.220565 0 0.0353953 0.178464 0 0.027881 0.2313 0 
0.0931188 0.227895 0 0.105162 0.177066 0 0.12523 0.220844 0 
0.15977 0.228665 0 0.1784 0.181974 0 0.193472 0.223295 0 
0.216499 0.182551 0 0.254893 0.19728 0 0.299306 0.212802 0 
0.336655 0.189847 0 0.337332 0.231925 0 0.38467 0.178642 0 
0.381964 0.213327 0 0.431047 0.22809 0 0.434675 0.193656 0 
0.481655 0.208759 0 0.531044 0.183526 0 0.532105 0.217548 0 
0.579546 0.221463 0 0.578515 0.189509 0 0.623635 0.190549 0 
0.63868 0.21967 0 0.677025 0.188702 0 0.683987 0.220255 0 
0.717852 0.18645 0 0.746199 0.211009 0 0.787746 0.203182 0 
0.798687 0.232707 0 0.829145 0.189199 0 0.838411 0.222348 0 
0.862428 0.180044 0 0.891691 0.207812 0 0.931577 0.201898 0 
0.95995 0.22405 0 0.977941 0.188811 0 1.0036 0.221474 0 
1.01772 0.183787 0 1.06242 0.179804 0 1.05742 0.214372 0 
1.10187 0.178663 0 1.10201 0.216651 0 1.14446 0.178386 0 
1.14815 0.211838 0 1.18633 0.180355 0 1.19083 0.217634 0 
1.23185 0.186843 0 1.23406 0.220457 0 1.27199 0.195734 0 
1.27909 0.233748 0 1.31687 0.203846 0 1.35252 0.18177 0 
1.35895 0.217774 0 1.39443 0.19098 0 1.40955 0.231114 0 
1.43501 0.197363 0 1.4728 0.201486 0 1.50699 0.202391 0 
1.53883 0.203673 0 1.56736 0.198775 0 1.59551 0.202746 0 
1.62191 0.196729 0 1.64466 0.183779 0 1.67255 0.18256 0 
1.72703 0.218006 0 1.757 0.213318 0 1.78614 0.205292 0 
1.81288 0.190291 0 1.84407 0.183253 0 1.85083 0.23377 0 
1.87817 0.216697 0 1.91015 0.21051 0 1.93854 0.196109 0 
1.97039 0.189865 0 1.99451 0.229721 0 2.00151 0.181357 0 
0.0408145 0.270588 0 0.0125393 0.287781 0 0.0741144 0.281117 0 
0.104171 0.267778 0 0.137297 0.279994 0 0.16849 0.268204 0 
0.228262 0.236448 0 0.201546 0.281222 0 0.235161 0.276882 0 
0.265291 0.239453 0 0.267897 0.293625 0 0.301278 0.259455 0 
0.343764 0.270513 0 0.382568 0.287963 0 0.383911 0.248926 0 
0.429026 0.264308 0 0.472521 0.27643 0 0.481514 0.24382 0 
0.526795 0.250512 0 0.530373 0.283194 0 0.571095 0.283265 0 
0.58665 0.253783 0 0.629333 0.251469 0 0.63583 0.282631 0 
0.677368 0.279083 0 0.69233 0.250572 0 0.735935 0.241628 0 
0.745754 0.270454 0 0.787649 0.263254 0 0.797983 0.291407 0 
0.839005 0.279882 0 0.855935 0.250084 0 0.894827 0.239782 0 
0.912293 0.265444 0 0.953017 0.253924 0 0.963374 0.282501 0 
1.0084 0.272183 0 1.0254 0.246225 0 1.06804 0.24646 0 
1.07864 0.275612 0 1.12198 0.277381 0 1.12798 0.245946 0 
1.16962 0.251828 0 1.17585 0.284171 0 1.21719 0.290012 0 
1.22012 0.254887 0 1.2593 0.266161 0 1.30824 0.277828 0 
1.31969 0.241463 0 1.34234 0.289702 0 1.36176 0.254607 0 
1.4025 0.263293 0 1.44236 0.276451 0 1.45283 0.24195 0 
1.48363 0.284408 0 1.49218 0.246863 0 1.52839 0.253264 0 
1.56206 0.254916 0 1.59324 0.260479 0 1.62166 0.253229 0 
1.65169 0.254204 0 1.67447 0.236457 0 1.70518 0.237744 0 
1.70573 0.294056 0 1.67399 0.293611 0 1.72945 0.272229 0 
1.76091 0.267285 0 1.79084 0.256062 0 1.81861 0.23999 0 
1.84347 0.287758 0 1.87236 0.269822 0 1.90602 0.266512 0 
1.93333 0.247286 0 1.96647 0.246088 0 1.97944 0.284197 0 
0.0519086 0.335758 0 0.0190023 0.326185 0 0.0810444 0.319798 0 
0.113119 0.333464 0 0.14306 0.319108 0 0.174961 0.333238 0 
0.205602 0.320903 0 0.237448 0.3362 0 0.271635 0.332626 0 
0.305532 0.34909 0 0.306656 0.298154 0 0.34208 0.315088 0 
0.343755 0.352522 0 0.383366 0.32477 0 0.425511 0.299549 0 
0.427587 0.336294 0 0.46751 0.343778 0 0.476365 0.310574 0 
0.516414 0.313923 0 0.527487 0.345419 0 0.566159 0.344773 0 
0.580535 0.314609 0 0.620567 0.312323 0 0.631218 0.342728 0 
0.670209 0.338153 0 0.687447 0.308555 0 0.729037 0.300152 0 
0.737923 0.32951 0 0.777955 0.322002 0 0.825332 0.34008 0 
0.784684 0.351629 0 0.846437 0.309567 0 0.890077 0.294512 0 
0.889851 0.32415 0 0.936536 0.309534 0 0.922529 0.347388 0 
0.979425 0.328153 0 1.0092 0.303147 0 1.03799 0.328851 0 
1.06024 0.30299 0 1.08846 0.335436 0 1.1168 0.311055 0 
1.1364 0.345179 0 1.1603 0.316187 0 1.18104 0.351905 0 
1.2078 0.323936 0 1.24872 0.334909 0 1.26609 0.301423 0 
1.28969 0.352871 0 1.3011 0.314002 0 1.34546 0.32813 0 
1.38519 0.297613 0 1.37974 0.339461 0 1.41935 0.313239 0 
1.42196 0.347388 0 1.46097 0.316795 0 1.49329 0.335566 0 
1.51891 0.294478 0 1.53037 0.339364 0 1.55374 0.300213 0 
1.58567 0.30897 0 1.61654 0.305883 0 1.64737 0.309483 0 
1.65181 0.352544 0 1.68603 0.351241 0 1.71492 0.333213 0 
1.74821 0.324538 0 1.77919 0.310115 0 1.78693 0.352119 0 
1.80983 0.294082 0 1.82128 0.343233 0 1.85372 0.326096 0 
1.88827 0.322462 0 1.91803 0.304459 0 1.95184 0.303539 0 
1.95815 0.34204 0 1.99138 0.3455 0 0.0552788 0.374468 0 
0.0263246 0.392132 0 0.0864584 0.388095 0 0.115853 0.372529 0 
0.146869 0.386122 0 0.177067 0.372214 0 0.208336 0.386097 0 
0.239451 0.375059 0 0.271704 0.389591 0 0.306574 0.387242 0 
0.344294 0.39885 0 0.380491 0.401689 0 0.384211 0.365221 0 
0.422599 0.371736 0 0.428743 0.407741 0 0.466679 0.410121 0 
0.475949 0.377066 0 0.514672 0.376572 0 0.526427 0.408105 0 
0.563705 0.406938 0 0.577641 0.375949 0 0.615367 0.373051 0 
[...]
POINT_DATA 1324
FIELD FieldData 9
id 1 1324 int
94 192 143 193 144 95 145 46 96 
47 97 48 49 50 1176 1177 1178 4 
5 6 7 8 9 10 11 99 1179 
12 1181 13 14 57 59 15 60 61 
62 16 17 63 64 18 65 66 19 
20 67 68 21 69 22 23 24 70 
25 118 71 26 27 119 72 28 73 
74 29 30 75 76 31 77 78 32 
33 79 80 34 81 82 35 83 84 
36 37 85 38 86 39 87 88 40 
89 41 137 138 90 42 139 43 91 
140 92 141 44 93 45 142 241 242 
243 194 244 195 146 245 196 147 197 
98 148 100 149 1180 55 54 58 56 
108 109 110 111 112 113 114 115 162 
116 163 117 164 165 166 167 120 168 
121 169 122 123 124 125 126 127 128 
129 130 131 132 133 134 135 136 184 
185 186 187 188 237 189 238 190 239 
240 191 290 340 291 292 342 293 294 
295 246 296 247 198 199 150 200 1182 
1183 1184 104 105 107 106 156 157 158 
159 160 209 161 210 211 212 213 214 
215 216 217 170 218 219 171 172 173 
174 175 176 177 178 179 180 181 182 
183 231 232 233 234 235 236 285 286 
287 288 289 389 339 388 390 341 391 
392 343 393 344 345 346 297 347 248 
298 299 249 250 1185 1188 1189 1186 1187 
1190 154 204 155 205 206 256 207 257 
208 258 259 309 260 310 261 262 311 
263 312 264 313 265 314 266 315 267 
316 268 220 269 221 270 222 223 224 
225 226 227 228 229 230 280 281 282 
283 284 333 334 335 336 337 387 338 
438 437 439 440 441 442 394 443 444 
395 445 396 397 398 348 349 350 300 
1191 1194 1195 1192 1193 1196 304 254 255 
305 306 356 357 307 308 358 359 409 
410 360 361 411 412 362 363 413 414 
364 365 366 317 367 318 319 320 271 
321 272 273 274 275 276 277 278 279 
328 327 329 330 331 332 382 383 384 
385 386 436 488 487 489 490 491 492 
493 494 495 496 446 447 497 448 399 
449 450 400 1197 1200 1201 1198 1199 1202 
404 354 355 405 406 457 456 407 408 
458 459 509 510 460 511 461 512 462 
513 463 514 464 465 415 466 416 417 
368 418 369 419 370 371 322 372 323 
324 325 326 376 377 378 379 380 430 
381 431 432 433 434 435 485 486 538 
537 539 540 541 542 543 544 545 546 
547 548 498 499 549 550 500 1203 1206 
1207 1204 1205 1208 504 454 455 505 506 
507 557 508 558 559 560 612 561 615 
614 562 617 563 616 564 565 566 515 
567 516 517 467 518 468 469 470 420 
421 422 423 373 424 374 425 375 426 
427 428 479 429 480 481 482 483 484 
534 535 536 588 587 589 590 591 592 
593 594 595 596 597 598 599 600 1209 
1210 1213 1211 1214 604 554 555 605 606 
556 607 608 609 610 611 613 625 621 
576 575 619 618 620 623 624 622 568 
569 570 571 519 520 521 522 471 472 
473 474 475 476 477 528 478 529 580 
530 531 581 582 532 533 583 584 585 
586 638 637 639 640 641 642 643 644 
645 695 646 697 647 648 698 699 649 
650 700 1215 1212 1216 1217 654 655 656 
657 658 659 660 661 663 667 671 675 
1249 1252 1253 1254 1259 1260 1261 1262 1268 
1269 1270 1273 1279 1280 1283 1284 1285 1290 
1291 1292 1296 1297 1298 1299 1303 1304 1305 
1309 1310 1311 1316 1317 1318 1320 1321 627 
677 1250 1251 1255 1256 1257 1258 1263 1264 
1265 1266 1267 1271 1272 1274 1275 1276 1277 
1278 1281 1282 1286 1287 1288 1289 1293 1294 
1295 1300 1301 1302 1306 1307 1308 1312 1313 
1314 1315 1319 1322 1323 1324 577 628 678 
727 722 572 573 574 523 524 525 526 
527 578 579 629 630 631 632 633 634 
635 636 688 738 687 689 740 690 691 
742 692 693 744 694 745 746 696 747 
748 799 749 750 800 1221 1218 1219 1222 
1223 1220 704 754 755 705 706 756 757 
707 708 709 662 665 664 669 726 725 
670 673 674 672 718 719 720 721 769 
723 770 724 771 772 773 822 774 823 
775 824 825 776 826 777 827 728 778 
679 729 779 730 680 681 731 732 682 
733 683 734 684 685 736 686 737 787 
789 739 791 741 793 743 794 795 796 
797 848 798 849 850 900 1227 1224 1225 
1228 1229 1226 804 854 855 805 806 856 
807 758 808 759 710 760 711 712 666 
713 714 668 715 716 717 765 766 767 
816 768 817 818 819 820 821 871 872 
873 874 875 876 877 828 878 829 830 
780 831 781 782 783 784 785 735 786 
788 838 839 840 790 841 842 792 843 
844 845 846 897 847 898 899 949 950 
1230 1233 1231 1234 1232 1235 904 954 955 
905 906 857 907 858 809 859 810 761 
811 762 812 763 813 764 814 815 866 
865 867 868 869 919 920 870 921 922 
923 924 925 926 927 928 929 879 880 
881 882 832 883 833 834 835 836 837 
889 888 890 891 892 893 894 895 946 
896 947 948 998 999 1000 1050 1236 1237 
1240 1241 1238 1054 1004 1055 1005 956 1006 
1007 957 908 958 959 909 910 860 861 
911 912 862 913 863 914 864 915 916 
917 968 918 969 970 971 1022 972 1023 
1024 973 974 1025 1026 975 976 1027 977 
978 979 980 930 981 931 932 933 934 
884 935 885 886 887 940 939 941 942 
943 994 944 995 945 996 1047 997 1048 
1049 1099 1100 1239 1243 1244 1104 1105 1106 
1056 1057 1058 1059 1008 1009 1010 960 1011 
961 1012 962 963 964 965 966 1018 967 
1019 1071 1020 1072 1021 1073 1074 1075 1076 
1077 1078 1079 1028 1029 1030 1031 1032 1033 
982 1034 983 984 985 986 936 987 937 
988 938 1042 990 1041 991 992 1043 993 
1044 1045 1096 1046 1147 1097 1148 1098 1149 
1150 1246 1242 1155 1154 1158 1156 1108 1107 
1109 1110 1111 1112 1113 1060 1061 1062 1063 
1064 1065 1013 1066 1014 1067 1015 1068 1016 
1017 1121 1069 1070 1122 1123 1124 1125 1126 
1127 1128 1129 1130 1131 1132 1133 1080 1081 
1082 1083 1084 1085 1086 1035 1087 1036 1037 
1038 1039 1040 989 1092 1143 1144 1093 852 
1094 1145 1095 1146 803 676 802 801 753 
1245 1247 1157 1159 1160 1161 1162 1163 1164 
1165 1166 1167 1168 1114 1115 1169 1116 1117 
1170 1118 1171 1119 1120 1172 1173 1174 1175 
1153 1152 1151 1103 1102 1101 1053 1052 1051 
1003 1002 1134 1001 1135 1136 953 1137 952 
1138 951 1139 1140 1088 902 1089 1141 1090 
1142 1091 53 52 851 51 3 2 1 
1248 626 752 751 703 701 702 653 651 
652 603 601 602 553 551 552 503 501 
502 453 451 452 403 402 353 401 352 
303 351 302 253 301 252 251 203 202 
201 153 152 151 103 903 102 101 901 
853 
C_[0] 1 1324 double
0 0 0 0 0 0 6.1042345673e-17 8.0872980608e-16 1.0437651018e-14 
2.839988541e-15 3.1038364982e-09 1.9009524813e-10 1.8122369506e-14 7.8535961353e-14 1.8998977605e-10 3.0206336034e-14 1.7999459721e-11 1.9011226265e-10 
6.0407214315e-15 1.8122268751e-14 1.5260943827e-08 2.2395182598e-08 5.6325424205e-08 1.2498467049e-07 2.6425585855e-07 5.6595913141e-07 1.7574371573e-06 
4.7745083699e-07 2.7873626803e-06 8.4723355718e-07 1.4700266345e-06 4.4449809084e-06 7.1614298079e-06 2.2968825315e-06 1.0306935618e-05 1.4600424233e-05 
1.2254699147e-05 3.269775121e-06 4.0479105599e-06 1.5764227514e-05 1.532596987e-05 4.4847938202e-06 1.474240033e-05 1.3496115503e-05 4.3592184022e-06 
3.7393385951e-06 1.158717389e-05 8.4063562831e-06 2.8894095457e-06 5.2586928282e-06 2.337106508e-06 1.8881044108e-06 1.3513300249e-06 2.7863636028e-06 
9.3781505536e-07 5.7494957399e-06 1.980737037e-06 5.270540799e-07 2.9194116857e-07 2.4682451362e-06 8.5280793887e-07 1.4169113225e-07 3.5688039902e-07 
1.7076415341e-07 6.681005194e-08 2.5414934023e-08 7.7120182944e-08 3.9217242813e-08 1.0010582876e-08 1.4928065131e-08 6.9480045887e-09 3.303081341e-09 
1.0140727966e-09 2.9730132758e-09 1.1231422318e-09 2.6647322287e-10 4.2698865988e-10 1.4377215575e-10 6.796305555e-11 4.6048819456e-11 1.3271216137e-11 
1.3418357342e-11 2.3714661235e-12 3.1009913983e-12 3.1416241477e-13 6.3003962279e-13 5.7379499082e-14 7.6771068404e-14 1.5186466807e-14 4.7743899698e-15 
1.8335474299e-15 8.8781616917e-16 1.1690375588e-14 1.3072092455e-15 2.5299463585e-16 6.5635775117e-17 2.7029690675e-16 9.8122223409e-18 1.741018497e-17 
9.4886142031e-18 1.5655388582e-18 2.1626106854e-18 1.7402692239e-19 6.1118301264e-24 4.2555354266e-25 7.7623014479e-28 0 0 
0 1.0275804031e-20 3.4322057879e-14 7.2763300976e-14 1.016553966e-08 3.3261802168e-08 1.4533379594e-07 7.5815319334e-08 1.4211444477e-06 
2.5787025867e-07 3.9048369946e-06 1.4497313327e-06 1.231169823e-05 7.1546621636e-06 1.2791227616e-05 3.7773761455e-05 5.5570638123e-05 0.00010756679812 
9.3702656575e-05 0.00011705642461 9.893253835e-05 8.3442178584e-05 6.7233414779e-05 4.9615684236e-05 3.6547895532e-05 2.1978054295e-05 8.9695080767e-05 
1.5588366665e-05 5.4490326668e-05 1.0281087065e-05 3.0272127775e-05 1.7369513796e-05 8.8892221357e-06 4.9088428698e-06 1.2938935181e-06 1.6790747075e-06 
4.3785551364e-07 6.9384643727e-07 1.4731007689e-07 5.9647570507e-08 2.8893072549e-08 1.0354461641e-08 4.3327628506e-09 1.5568976671e-09 6.3950793601e-10 
2.4307960557e-10 8.9715410278e-11 3.0976317514e-11 1.0009709981e-11 3.0828978966e-12 7.7847560056e-13 1.917404105e-13 5.0655226454e-14 1.2880744662e-14 
3.0702410091e-15 6.4960751194e-16 1.303797832e-16 2.229615136e-17 1.5061770623e-17 2.4628138334e-18 9.534392752e-23 7.1654794702e-24 7.0298822309e-24 
0 0 0 0 0 0 6.8275053284e-14 9.0891233372e-14 2.0027945333e-12 
4.6895308408e-07 1.2285047506e-06 5.4863340461e-06 7.1923838779e-06 1.388312428e-05 4.9795985151e-05 3.1829090354e-05 0.00015398982974 5.3951194301e-05 
0.00010746724957 0.00020542106432 0.00025656514555 0.00043320591308 0.00018461014152 0.00050371475393 0.00098350172249 0.00059640129398 0.00043355933756 
0.00031249467992 0.00022724637646 0.00055144096424 0.00013605646893 0.0003325317885 0.00017585477732 9.3201140542e-05 4.4191109923e-05 2.2383713841e-05 
9.8364399153e-06 4.5616464294e-06 2.1215688185e-06 2.8714270968e-07 5.8603247175e-07 2.1826827705e-07 6.3870408147e-08 1.598284693e-08 4.4423934326e-09 
1.3595072677e-09 4.3753852619e-10 1.4288440484e-10 4.8517843241e-11 1.5849018769e-11 5.6265880748e-12 1.8479720122e-12 5.8268327913e-13 1.8131951558e-13 
5.069431242e-14 8.7777761096e-14 2.3359847071e-14 6.2673963684e-15 1.5044028945e-15 3.5096207461e-16 7.6097362926e-17 3.8480114432e-17 2.6669753024e-22 
2.1805928093e-23 0 0 0 0 0 0 0 0 
3.6962722686e-12 3.2176947199e-12 5.275664574e-11 4.9812365361e-07 5.0865741383e-06 3.1471265285e-05 3.0238432972e-05 0.00014519391729 5.0109601464e-05 
0.00016471309375 0.00054470488042 0.00017286346794 0.00049852722308 0.00036884616855 0.0010734315463 0.0017838965306 0.0006687327384 0.0010144976822 
0.0026576617545 0.0013187774467 0.0032191766571 0.0014679860967 0.0031117385957 0.0024884461758 0.0051246348851 0.0015352646915 0.0032653864438 
0.0010097398377 0.0016460963688 0.00097244865891 0.0011950962398 0.00041996430491 0.00060546644039 0.00021017775856 8.5990278034e-05 0.00021761673809 
4.0103802398e-05 9.5308468675e-05 1.608718736e-05 3.1229931019e-05 6.54161696e-06 1.2409581786e-05 2.1675150285e-06 3.8681722264e-06 8.1492902714e-07 
1.3392976966e-06 2.2859397223e-07 4.7238245757e-08 7.5981268213e-08 1.4416753131e-08 1.7249943698e-08 3.7610943268e-09 1.071985541e-09 3.162858975e-10 
9.8199081266e-11 2.9571673131e-11 9.8452066865e-12 2.961240608e-12 9.74584683e-13 2.8526366574e-13 4.9775631332e-14 1.3095911806e-14 3.1305616784e-15 
7.8079492117e-16 1.7771328267e-16 2.8480804513e-16 6.4650501631e-17 4.4284852484e-22 4.4503999818e-23 0 0 0 
0 0 0 0 3.1128818427e-12 4.7994403257e-11 8.8800822624e-06 1.7787708323e-06 5.9704284715e-05 
3.7791587872e-05 0.0003047840362 0.00019066196542 0.00063008194994 0.0020434219644 0.00058081817696 0.0016882456078 0.0039281832935 0.0014969548846 
0.0028350766478 0.0076297455311 0.010068102218 0.0049305359116 0.0059544271585 0.014066725073 0.014581609618 0.0075904097627 0.0065395749547 
0.013225125443 0.010200023864 0.017995467106 0.011310156047 0.0056072466781 0.0032003059731 0.0046410564095 0.002320361271 0.0032190779643 
0.0014371098442 0.00070287200957 0.00030964039774 0.00038957599721 0.00015804060925 9.0617060676e-05 3.6904646647e-05 4.586408401e-05 1.5984028122e-05 
1.0202162575e-05 3.7019708565e-06 9.1291653202e-07 4.0636754806e-07 3.2861300248e-07 1.2547828361e-07 3.2714130918e-08 9.1291383163e-09 4.3004600912e-09 
2.020626713e-09 1.0552036953e-09 2.8440680962e-10 7.8977421269e-11 2.4223169052e-11 7.025669157e-12 2.0504221634e-12 6.0830100026e-13 1.7078008058e-13 
2.941531445e-13 1.1089246201e-12 8.8286130927e-14 2.1872946948e-14 5.0385679229e-15 1.2696787316e-15 6.55498867e-16 1.4965924114e-16 9.6687148572e-22 
1.1210020608e-22 0 0 0 0 0 0 2.0772984338e-11 1.0171585554e-09 
3.4933149189e-05 0.00054023158125 0.0014680454075 0.0049510265619 0.00087969543696 0.0027754288272 0.010068689959 0.0067431038233 0.0050249327454 
0.01475114334 0.025603395559 0.010798238186 0.016279837566 0.038578864298 0.045629914033 0.023900614989 0.026807048984 0.054336332495 
0.05253461851 0.029493663844 0.024878087413 0.044079273284 0.033541652026 0.033715584149 0.052141436942 0.018017288344 0.0094981647344 
0.014277750415 0.0067825907881 0.01162808522 0.0042976955886 0.0021516377534 0.0014401208412 0.00078734541436 0.00048931875404 0.00023332114883 
0.00015856564414 8.3290340435e-05 4.8888092535e-05 2.3947900582e-05 7.4906866849e-06 4.1216523177e-06 2.1259647977e-06 1.4468983368e-06 3.5593824924e-07 
7.8106609883e-08 1.0894363793e-07 2.5281580313e-08 2.4737404554e-08 5.6973574603e-09 1.7482451052e-09 5.7879165065e-10 4.3511001187e-10 1.5293317427e-10 
4.7018297997e-11 1.3006634183e-11 3.8025577374e-12 3.4910470069e-12 8.486576446e-13 2.4636072792e-13 5.6249540569e-14 1.3904960732e-14 1.0677629826e-14 
3.1056180941e-15 2.3394268428e-15 5.0185499717e-16 9.4974288743e-17 6.7119360728e-22 4.3729665184e-23 5.2958026498e-23 0 0 
0 0 0 9.2712195229e-10 4.929258504e-09 0.0005402199007 0.0026513489426 0.010522594939 0.019216090098 
0.041347988178 0.062475536594 0.022566603088 0.038558431135 0.098139456288 0.12516556286 0.061712263116 0.074946247386 0.14847750924 
0.15784961201 0.091856593725 0.094611072372 0.16227626272 0.15087520241 0.09159296737 0.076746375309 0.11818363168 0.092471974782 
0.049810305748 0.085346948792 0.029500327073 0.038934778202 0.019504144977 0.007054611913 0.0072571071519 0.0033960592553 0.0023992949251 
0.0018207238168 0.0011312573801 0.00061187324566 0.00045326189342 0.00030315741794 0.00019338966224 6.6733472484e-05 2.1908846864e-05 1.4866219377e-05 
9.0458289805e-06 4.9321135399e-06 1.7632359379e-06 6.9706554474e-07 5.857915668e-07 2.0533349708e-07 6.0816977073e-08 1.7599386152e-08 8.6218134821e-09 
1.962304307e-09 7.3292988449e-10 2.17783329e-10 1.504749144e-10 6.5892484356e-11 4.0918661009e-11 1.9111574751e-11 1.1940245941e-11 5.0012399411e-12 
1.1707853338e-12 2.73953664e-13 6.5323715063e-14 5.8870755598e-14 1.215846909e-14 1.9034109349e-15 3.8000652946e-16 8.0243042595e-17 4.5469463072e-22 
4.5409561584e-22 2.789859587e-23 0 0 0 0 0 2.1054452472e-09 1.050015085e-07 
0.00303012742 0.02686263484 0.043501155487 0.094894814957 0.12133705339 0.17294658208 0.20538554819 0.2426493312 0.25224410144 
0.26336975763 0.39134396737 0.25405414758 0.36778912196 0.3317968763 0.2260676598 0.19126112665 0.25834555611 0.19816954997 
0.1256435882 0.12034165994 0.076132888034 0.043408648566 0.02490920204 0.014033452466 0.0056962244158 0.0022511353211 0.00088696797847 
7.9414099056e-05 5.1270962223e-05 8.4134983425e-05 5.5231334508e-05 2.43345598e-05 1.1469622177e-05 6.5341622796e-06 6.5711879843e-06 4.4238968027e-06 
2.0820754127e-06 8.2879812215e-07 3.3796896977e-07 2.0293838947e-07 6.9750899532e-08 2.4468931937e-08 1.342227367e-08 7.1933370966e-09 1.9723609122e-09 
9.7724756639e-10 3.1198910296e-10 1.0378046515e-10 2.0937408629e-11 4.6422981049e-12 1.3415033915e-12 6.357108335e-13 1.1255166756e-13 2.3489128462e-14 
1.1975180302e-14 2.3128809058e-15 2.7063404297e-15 4.991082498e-16 3.4582629019e-16 6.5944470853e-17 7.6918458063e-17 4.4276593029e-22 4.5068395692e-23 
0 1.6105740834e-06 3.168260396e-06 3.8868811356e-06 1.5722848913e-06 3.8156334088e-06 1.9247360613e-06 0.070862331454 0.13032010173 
0.27901787868 0.71885947321 0.27527326516 0.64372984343 0.34776450855 0.36351881064 0.63304359568 0.60309063329 0.38882832489 
0.39607835231 0.58316202345 0.56333264579 0.40244293945 0.53496067735 0.50112807051 0.42652297907 0.36584092581 0.25733361639 
0.18682957412 0.11652245732 0.074031211018 0.05429190029 0.033137730172 0.017636653365 0.0086660575418 0.0069951450817 0.0033316153026 
0.00055602999478 0.00079711059668 0.00065788277703 0.00053524908545 0.0009296794865 0.00077809876293 0.00064024978563 0.00051956172119 0.0010754480956 
0.00091183238364 0.00076211517354 0.00079951313162 0.0010677993694 0.00089837404086 0.00070959251295 0.0008589917387 0.0010264523365 0.0012696179472 
0.00107103974 0.00089635087493 0.00063457921164 0.00077489121735 0.00093649049113 0.0011218241032 0.0012940620889 0.0010864592694 0.00090599906283 
0.00086325527425 0.0010414357497 0.001248696278 0.0013395280428 0.0011212889165 0.00093306135033 0.00097833127311 0.0011765047666 5.437512332e-05 
6.393882363e-05 0.00045234266772 0.0003698144348 0.00043269154041 0.00035156067582 0.00028702963304 0.00023650873041 0.00041919617435 0.00034007007029 
0.00027686761343 0.00022741671628 0.0001876598459 0.00053634489805 0.00065738502459 0.00031155576406 0.00037941721531 0.00022395902345 0.00018429364083 
0.00015010941837 0.00046722952846 0.00057780649202 0.00022783580311 0.00027629467185 0.00018412971608 0.00014939720325 0.00033550370678 0.00041396050813 
0.00051390069596 0.0001855962747 0.0001501185274 0.00012036185163 0.00017025731385 0.00020857216897 0.00025335666783 0.00015927278077 0.00018750090102 
0.0001514041097 0.00012113240095 0.00019664747481 0.00012289064639 0.00015355327669 0.00019017736966 3.7843166697e-05 2.5382919076e-05 3.1246467924e-05 
5.2877825146e-05 1.2400239267e-06 2.3569813767e-07 8.2716921878e-08 4.1281867713e-08 6.246630045e-09 2.0139125171e-09 4.5014804225e-10 7.8785983121e-11 
1.7789429377e-11 2.4214393318e-12 2.1532678165e-13 2.213413177e-13 3.7602234758e-14 5.5964378671e-15 6.7738630173e-16 1.2475212885e-16 6.2433199872e-22 
3.1123065292e-07 9.0099323382e-07 0.99999761569 0.99999919493 0.99999252237 0.9999962393 1 0.99999832726 0.99999613926 
0.99999994116 0.99999821362 0.94123784512 0.97734911788 0.86607285488 0.95946365417 0.90677023306 0.71759833932 0.8823090908 
0.82812766154 0.90290266789 0.78933535787 0.74859937062 0.86501384988 0.82837785092 0.71134198003 0.67505798998 0.77323626603 
0.7190513136 0.60714056807 0.54501824884 0.60842838693 0.51406905411 0.4248205092 0.33031376865 0.35323242993 0.25833493351 
0.20577932916 0.14120582272 0.077048787658 0.022435918444 0.010961387864 0.0088150428879 0.0015403234733 0.00015204184483 9.5721181988e-05 
0.00039399603703 0.00017094474621 9.0979293201e-05 9.6871245913e-05 6.5584166577e-05 1.2631986975e-05 4.900991706e-06 2.2039647647e-06 3.2974783538e-06 
4.9498659057e-07 9.7199447384e-07 2.0103363721e-07 3.1580936761e-07 1.1789247907e-07 3.8322793441e-08 3.5608209306e-08 1.1281048411e-08 1.1454190017e-08 
2.371545634e-09 3.6683860065e-09 1.0299926695e-09 3.8733063971e-10 2.091597228e-10 6.8972256353e-11 4.4294770025e-11 8.3861182509e-12 9.5162171409e-12 
4.9842369495e-13 1.2753023743e-12 1.0667019028e-12 1.341245197e-13 5.6248989534e-14 9.787697632e-15 1.2374787972e-14 1.9470700718e-15 1.4151731666e-15 
3.5092259382e-16 1.733432997e-16 1.4171357926e-21 9.7592835846e-22 5.4795984026e-07 4.615245037e-06 4.2022539507e-06 0.99999533818 0.99999468998 
1 1 0.99999999983 0.99999999896 0.99988878741 0.99818699224 0.9980332147 0.99142305659 0.98344422009 
0.96227500144 0.97871113446 0.93906938597 0.96028488455 0.93365481386 0.96585056132 0.94055132862 0.89599070821 0.85583201247 
0.88943315556 0.831176144 0.77300246283 0.69227473871 0.70373051408 0.59016841043 0.53377914101 0.41588503132 0.39738810947 
0.2477231235 0.14265035186 0.16301399045 0.086483755409 0.048027728852 0.042532552342 0.026688248948 0.013578576172 0.0039188341131 
0.0061863384199 0.0029163928922 0.00095375773876 0.0010608707041 0.00040906681405 0.00015371397877 0.0003217506717 9.8093224863e-05 2.8973171952e-05 
5.285870224e-05 9.366546957e-06 1.6668313204e-05 4.7742683615e-06 1.1772195136e-06 3.7789600697e-07 1.0382217023e-07 6.3426577716e-08 1.5905124186e-08 
4.7731492282e-09 1.3324837568e-09 3.5908489694e-10 9.9693530609e-11 2.3621990767e-11 7.2121608637e-12 5.1164200009e-12 8.5674934408e-13 1.7532897145e-13 
1.1143417454e-13 2.8103911075e-14 2.0861572559e-14 2.9599728989e-15 4.6701319212e-16 2.9952640557e-21 4.6724940139e-07 6.3904922978e-07 3.8547460645e-06 
0.99999885684 0.99999669607 0.99999960705 1 1 1 0.99999999983 0.99999999798 0.99999999812 