# vtk DataFile Version 4.1
Generated by LAMMPS
ASCII
DATASET POLYDATA
POINTS 1324 float
0.0332382 0.0322075 0 0.0059407 0.00458623 0 0.0629392 0.00262159 0 
0.0967979 0.02705 0 0.112954 3.80821e-09 0 0.136925 0.0495795 0 
0.151708 0.0143232 0 0.181024 0.0511764 0 0.187242 7.566e-09 0 
0.200001 2.76002e-09 0 0.2 1.40889e-07 0 0.200001 1.17238e-08 0 
0.200001 2.34321e-08 0 0.199999 1.41993e-08 0 0.200001 8.46385e-08 0 
0.199999 5.19919e-08 0 0.200001 1.48542e-08 0 0.270417 1.01832e-07 0 
0.285794 7.75087e-08 0 0.324644 1.09723e-07 0 0.361859 9.59479e-08 0 
0.401235 5.5801e-08 0 0.377263 0.0587166 0 0.430147 0.0511549 0 
0.440968 2.57804e-08 0 0.489127 0.0445443 0 0.4809 4.65154e-08 0 
0.5209 1.08109e-07 0 0.529661 0.0493741 0 0.556372 0.0510951 0 
0.584283 0.0570827 0 0.560885 2.71462e-08 0 0.605331 0.0471743 0 
0.63198 0.0472564 0 0.600898 3.00264e-08 0 0.64097 1.34035e-07 0 
0.658709 0.0452838 0 0.68738 0.040164 0 0.681035 1.86739e-09 0 
0.719304 0.0374738 0 0.753778 0.0344741 0 0.721159 8.26676e-08 0 
0.761259 8.88437e-09 0 0.792501 0.0298136 0 0.801382 3.29352e-08 0 
0.845351 0.027021 0 0.841401 4.09329e-08 0 0.881373 3.53328e-08 0 
0.919435 0.0321456 0 0.921706 1.98992e-08 0 0.971792 0.0360077 0 
0.961806 7.02408e-08 0 1.02988 0.04142 0 1.00212 1.40986e-07 0 
1.04216 2.75997e-08 0 1.07125 0.0420965 0 1.11214 0.0423043 0 
1.08262 2.19593e-08 0 1.14769 0.0454518 0 1.12271 2.35093e-08 0 
1.16344 2.25062e-10 0 1.18289 0.0444835 0 1.21642 0.0448338 0 
1.20364 2.02035e-09 0 1.24831 0.0459761 0 1.27925 0.047212 0 
1.24728 3.90241e-08 0 1.28935 1.26946e-08 0 1.30902 0.0455904 0 
1.33905 0.0456617 0 1.33422 4.46804e-08 0 1.36925 0.0448834 0 
1.40088 0.0432544 0 1.37535 1.54605e-08 0 1.43397 0.0413707 0 
1.47012 0.0382393 0 1.42115 1.44161e-09 0 1.46155 1.25887e-08 0 
1.50801 0.0375302 0 1.50941 1.25561e-09 0 1.55046 0.0362407 0 
1.55054 1.42694e-08 0 1.58984 0.0341395 0 1.63895 0.0366335 0 
1.6034 1.04457e-08 0 1.6439 3.68622e-09 0 1.67877 0.0263314 0 
1.70152 6.5774e-09 0 1.69869 0.0540024 0 1.74104 0.034187 0 
1.74311 2.11017e-09 0 1.76599 0.0535905 0 1.78455 0.00691922 0 
1.7931 0.0366092 0 1.83172 0.00223496 0 1.84567 0.0256296 0 
1.87159 6.4643e-10 0 1.8908 0.042706 0 1.92656 0.0283622 0 
1.96048 0.013082 0 1.98875 0.0283841 0 0.0464855 0.0668323 0 
0.013564 0.0892398 0 0.071615 0.099292 0 0.0961235 0.0718804 0 
0.121993 0.105238 0 0.160415 0.0818297 0 0.213459 0.0875596 0 
0.246693 0.0663684 0 0.272314 0.0926549 0 0.30044 0.059703 0 
0.331327 0.109247 0 0.343385 0.0642433 0 0.415236 0.0761641 0 
0.472854 0.0682683 0 0.490185 0.0973237 0 0.542843 0.0894675 0 
0.564411 0.114647 0 0.616705 0.0993716 0 0.65589 0.107567 0 
0.678306 0.0981478 0 0.705671 0.0942445 0 0.732716 0.0894254 0 
0.761371 0.0843214 0 0.791461 0.0784549 0 0.822434 0.0712683 0 
0.85673 0.113277 0 0.856207 0.0656923 0 0.891177 0.10705 0 
0.889707 0.0603239 0 0.926682 0.101642 0 0.929335 0.0599246 0 
0.962567 0.0970666 0 0.985338 0.0613636 0 1.00457 0.0958586 0 
1.03751 0.0685463 0 1.06033 0.0963826 0 1.11006 0.106427 0 
1.10105 0.0752119 0 1.15817 0.114345 0 1.15778 0.0836073 0 
1.19653 0.0900217 0 1.22956 0.0940013 0 1.26105 0.0962117 0 
1.29155 0.0974033 0 1.3204 0.0983401 0 1.3487 0.0993115 0 
1.376 0.0988894 0 1.4027 0.0967778 0 1.42924 0.0944421 0 
1.45597 0.0898008 0 1.48298 0.0838609 0 1.51336 0.0801934 0 
1.54429 0.0755691 0 1.57925 0.0721094 0 1.61287 0.0652881 0 
1.66014 0.114371 0 1.66363 0.0636473 0 1.69339 0.107574 0 
1.727 0.0973301 0 1.76394 0.0934637 0 1.80747 0.0805033 0 
1.81843 0.116687 0 1.84601 0.0726148 0 1.8535 0.107506 0 
1.89192 0.105343 0 1.90103 0.0726813 0 1.93137 0.0971328 0 
1.94083 0.0615284 0 1.97509 0.0951334 0 1.98151 0.0612835 0 
0.058255 0.136666 0 0.0415275 0.17606 0 0.0178042 0.133029 0 
0.0991675 0.140963 0 0.142239 0.144745 0 0.178469 0.118377 0 
0.185545 0.157526 0 0.224831 0.133024 0 0.228831 0.171671 0 
0.274914 0.127139 0 0.274581 0.162101 0 0.326986 0.143436 0 
0.378221 0.157137 0 0.380006 0.121546 0 0.423522 0.122823 0 
0.425805 0.1705 0 0.459501 0.130376 0 0.497783 0.140404 0 
0.531692 0.138866 0 0.569457 0.150624 0 0.617145 0.15268 0 
0.617065 0.123307 0 0.673467 0.162666 0 0.700354 0.151559 0 
0.729713 0.144793 0 0.761295 0.138959 0 0.792187 0.12988 0 
0.811627 0.169955 0 0.82411 0.121394 0 0.849702 0.159048 0 
0.886761 0.150814 0 0.924701 0.143006 0 0.964938 0.136598 0 
0.973507 0.171899 0 1.00672 0.132972 0 1.01837 0.166933 0 
1.04767 0.132225 0 1.06145 0.1675 0 1.0885 0.136639 0 
1.11157 0.168873 0 1.14473 0.145562 0 1.18697 0.14935 0 
1.22103 0.137542 0 1.2453 0.169885 0 1.26785 0.143355 0 
1.30988 0.151728 0 1.34483 0.155184 0 1.3771 0.157426 0 
1.40736 0.157175 0 1.4364 0.15694 0 1.46315 0.151201 0 
1.49083 0.151365 0 1.5152 0.141751 0 1.54228 0.136928 0 
1.56971 0.131967 0 1.59852 0.12611 0 1.62872 0.168461 0 
1.62817 0.118291 0 1.65856 0.163443 0 1.68832 0.15491 0 
1.71878 0.144148 0 1.75178 0.138569 0 1.78442 0.126566 0 
1.80745 0.169851 0 1.83987 0.160583 0 1.87321 0.153263 0 
1.90807 0.146979 0 1.94371 0.141356 0 1.98012 0.136096 0 
0.0255738 0.220794 0 0.00556681 0.177017 0 0.0600626 0.228567 0 
0.0786558 0.181744 0 0.0936653 0.223171 0 0.115894 0.181117 0 
0.129069 0.235175 0 0.155062 0.192781 0 0.16456 0.234854 0 
0.19479 0.199535 0 0.23306 0.216647 0 0.27402 0.197725 0 
0.277376 0.234434 0 0.325457 0.178867 0 0.322558 0.213989 0 
0.369094 0.229222 0 0.373386 0.194107 0 0.421179 0.205182 0 
0.467252 0.211562 0 0.471683 0.178895 0 0.517087 0.184925 0 
0.520341 0.218487 0 0.564472 0.222765 0 0.563067 0.189856 0 
0.603813 0.191481 0 0.62248 0.221633 0 0.647498 0.181748 0 
0.6651 0.216974 0 0.706195 0.202285 0 0.739951 0.192587 0 
0.761827 0.222971 0 0.77623 0.180387 0 0.799352 0.212937 0 
0.844934 0.197841 0 0.863575 0.22873 0 0.885527 0.189388 0 
0.915699 0.213472 0 0.932939 0.178416 0 0.96152 0.210236 0 
0.984642 0.235114 0 1.01271 0.201678 0 1.02811 0.233005 0 
1.06011 0.203373 0 1.08431 0.232939 0 1.1083 0.202488 0 
1.15395 0.178769 0 1.15642 0.215112 0 1.20237 0.187447 0 
1.19951 0.222293 0 1.24445 0.203782 0 1.28683 0.182686 0 
1.29453 0.221477 0 1.32761 0.192699 0 1.36567 0.200753 0 
1.40065 0.204978 0 1.4334 0.208717 0 1.46346 0.20571 0 
1.49283 0.208018 0 1.52048 0.201391 0 1.54569 0.190596 0 
1.57452 0.187711 0 1.60059 0.177279 0 1.62198 0.22386 0 
1.65302 0.219437 0 1.68331 0.210948 0 1.71224 0.197575 0 
1.74474 0.191957 0 1.77528 0.179483 0 1.777 0.226793 0 
1.80979 0.220184 0 1.83993 0.207113 0 1.87249 0.200219 0 
1.90476 0.191988 0 1.93851 0.187471 0 1.9602 0.226719 0 
1.97133 0.179015 0 1.99371 0.228469 0 0.0375534 0.279941 0 
0.00441646 0.267783 0 0.0687514 0.268127 0 0.101833 0.281062 0 
0.135602 0.275616 0 0.168986 0.290289 0 0.200543 0.249784 0 
0.204383 0.290342 0 0.238167 0.257512 0 0.276726 0.275366 0 
0.319571 0.251223 0 0.318497 0.287946 0 0.363285 0.263972 0 
0.414139 0.238601 0 0.414268 0.272893 0 0.454868 0.277252 0 
0.468028 0.245974 0 0.509763 0.250307 0 0.513776 0.282989 0 
0.554491 0.284467 0 0.56855 0.255199 0 0.611655 0.252618 0 
0.619962 0.282898 0 0.661131 0.279125 0 0.673228 0.248556 0 
0.712387 0.237447 0 0.725732 0.268166 0 0.764034 0.256563 0 
0.777487 0.285715 0 0.815711 0.270309 0 0.82418 0.238395 0 
0.882094 0.255761 0 0.866446 0.285924 0 0.923751 0.244345 0 
0.930974 0.275283 0 0.975654 0.265789 0 1.03437 0.264387 0 
1.07973 0.263866 0 1.12759 0.241618 0 1.13542 0.273322 0 
1.17339 0.28802 0 1.18255 0.255951 0 1.21826 0.270377 0 
1.2419 0.239288 0 1.26222 0.283984 0 1.28294 0.252349 0 
1.33695 0.236736 0 1.32234 0.269494 0 1.36379 0.281562 0 
1.37637 0.245143 0 1.39931 0.293806 0 1.41267 0.25468 0 
1.44738 0.256802 0 1.47936 0.262887 0 1.50934 0.257342 0 
1.54025 0.256762 0 1.56593 0.241736 0 1.5973 0.241729 0 
1.62005 0.277657 0 1.65239 0.271712 0 1.68374 0.261209 0 
1.71396 0.247594 0 1.74706 0.2412 0 1.73572 0.292884 0 
1.7675 0.278176 0 1.80197 0.273844 0 1.83206 0.257693 0 
1.86581 0.254922 0 1.87911 0.293304 0 1.89581 0.240401 0 
1.92952 0.239277 0 1.94216 0.277363 0 1.97533 0.283132 0 
0.0433135 0.319093 0 0.0133396 0.33347 0 0.0751961 0.333218 0 
0.105964 0.320795 0 0.138402 0.335302 0 0.172104 0.330107 0 
0.205632 0.344477 0 0.239077 0.305383 0 0.241104 0.3452 0 
0.278451 0.313941 0 0.319024 0.32634 0 0.359262 0.335256 0 
0.364005 0.299783 0 0.404509 0.306068 0 0.411044 0.339956 0 
0.450159 0.342508 0 0.461059 0.310507 0 0.500487 0.313394 0 
0.509962 0.345171 0 0.548818 0.344964 0 0.564007 0.315293 0 
0.60431 0.312462 0 0.614538 0.342733 0 0.65378 0.339171 0 
0.671192 0.308838 0 0.711176 0.299572 0 0.720341 0.329823 0 
0.759718 0.317878 0 0.765455 0.34903 0 0.806387 0.334701 0 
0.823934 0.301736 0 0.864091 0.31945 0 0.897337 0.339892 0 
0.911613 0.305796 0 0.945239 0.330023 0 0.969195 0.299237 0 
0.995774 0.32622 0 1.01649 0.294834 0 1.04443 0.324009 0 
1.0703 0.296178 0 1.09091 0.328247 0 1.11713 0.302371 0 
1.13296 0.340796 0 1.16473 0.322228 0 1.19954 0.339208 0 
1.22091 0.307584 0 1.2547 0.324827 0 1.29597 0.302775 0 
1.29694 0.337349 0 1.33785 0.311251 0 1.37027 0.331136 0 
1.40774 0.337869 0 1.43498 0.300968 0 1.46758 0.310261 0 
1.49971 0.307976 0 1.53144 0.310506 0 1.56046 0.297388 0 
1.56879 0.350904 0 1.59277 0.29602 0 1.60037 0.335758 0 
1.63507 0.327199 0 1.66765 0.31323 0 1.70108 0.300157 0 
1.71047 0.344955 0 1.74605 0.331561 0 1.7817 0.3267 0 
1.8143 0.312081 0 1.84901 0.309832 0 1.85616 0.348403 0 
1.89043 0.349795 0 1.91303 0.294221 0 1.92004 0.332787 0 
1.95306 0.338358 0 1.98187 0.321513 0 0.0470984 0.386118 0 
0.0160731 0.372538 0 0.07731 0.372203 0 0.10873 0.385985 0 
0.140279 0.374598 0 0.172745 0.388295 0 0.207091 0.384499 0 
0.241663 0.394624 0 0.278663 0.356946 0 0.278045 0.396098 0 
0.31711 0.363875 0 0.319776 0.402634 0 0.358417 0.406605 0 
0.363131 0.371092 0 0.402715 0.373392 0 0.410281 0.407263 0 
0.448079 0.407849 0 0.458971 0.375437 0 0.496928 0.376062 0 
0.507934 0.407811 0 0.545107 0.406751 0 0.559703 0.375933 0 
0.597995 0.372978 0 0.608553 0.403701 0 0.645875 0.40093 0 
[...]
POINT_DATA 1324
FIELD FieldData 9
id 1 1324 int
145 95 46 96 47 146 97 147 48 
49 50 1176 1177 1178 4 5 6 7 
8 9 10 11 1179 1181 12 57 13 
14 59 60 61 15 62 63 16 17 
64 65 18 66 67 19 20 68 21 
69 22 23 70 24 71 25 72 26 
27 73 74 28 75 29 30 76 77 
31 78 79 32 33 80 81 34 82 
83 35 84 85 36 37 86 38 87 
39 88 89 40 41 90 42 139 91 
43 140 92 141 44 93 45 142 143 
94 144 194 243 244 195 245 196 197 
98 148 99 149 100 1180 55 54 58 
56 108 109 110 111 112 113 114 115 
163 116 164 117 165 118 166 119 167 
120 168 169 121 170 122 123 124 125 
126 127 128 129 130 131 132 133 134 
135 136 137 185 138 186 187 188 189 
238 190 239 240 191 241 192 242 193 
293 342 292 294 295 246 296 247 297 
198 248 199 200 150 1182 1185 1183 1184 
104 105 106 107 157 158 159 160 161 
210 162 211 212 213 214 263 215 264 
216 265 217 266 218 219 171 220 172 
173 174 175 176 177 178 179 180 181 
182 183 232 184 233 234 235 236 237 
286 287 288 289 290 291 391 341 392 
343 393 344 394 345 395 346 347 298 
348 249 299 300 250 1188 1189 1186 1187 
1190 204 154 155 205 156 206 207 208 
258 209 259 260 310 261 311 262 312 
362 313 363 314 364 315 267 316 268 
317 269 221 270 222 223 224 225 226 
227 228 229 230 231 280 281 282 283 
284 285 334 335 336 337 338 339 389 
340 390 441 440 442 443 444 445 396 
446 397 398 349 399 350 1191 1194 1195 
1192 1193 1196 304 254 255 305 306 256 
257 307 308 358 359 309 360 410 361 
411 412 413 414 365 415 416 366 367 
318 368 319 271 320 321 272 322 273 
274 275 276 277 278 279 329 330 331 
332 333 382 383 384 385 386 436 387 
388 438 439 491 490 492 493 494 495 
496 447 497 448 449 450 400 1197 1200 
1201 1198 1199 1202 404 354 355 405 406 
356 357 407 408 458 459 409 460 511 
461 512 462 513 463 514 464 515 465 
516 466 467 417 418 369 419 370 371 
372 323 324 325 326 327 377 328 378 
379 380 381 431 432 433 434 435 485 
486 437 487 488 489 541 540 542 543 
544 545 546 547 498 548 499 549 550 
500 1203 1206 1207 1204 1205 1208 504 454 
455 505 506 456 457 507 508 509 559 
560 510 561 562 614 563 564 616 565 
618 620 566 567 568 517 468 518 519 
469 470 420 471 421 422 423 373 424 
374 425 375 426 376 427 428 479 429 
480 430 481 482 483 484 534 535 536 
537 538 539 591 590 592 593 594 595 
596 597 598 599 600 1209 1210 1211 554 
604 555 605 606 556 557 607 608 558 
609 610 611 612 613 615 617 621 619 
576 622 623 624 575 569 570 571 572 
573 520 521 522 472 473 474 475 476 
477 528 478 579 529 580 530 531 581 
582 532 533 583 584 585 586 587 588 
589 641 640 642 643 644 645 695 646 
647 697 648 698 699 649 650 700 1215 
1212 1213 1216 1217 1214 654 655 656 657 
658 659 660 661 662 663 667 671 625 
675 1249 1252 1253 1254 1259 1260 1261 1262 
1268 1269 1270 1273 1279 1280 1283 1284 1285 
1290 1291 1292 1296 1297 1298 1299 1303 1304 
1305 1309 1310 1311 1316 1317 1318 1320 1321 
627 677 1250 1251 1255 1256 1257 1258 1263 
1264 1265 1266 1267 1271 1272 1274 1275 1276 
1277 1278 1281 1282 1286 1287 1288 1289 1293 
1294 1295 1300 1301 1302 1306 1307 1308 1312 
1313 1314 1315 1319 1322 1323 1324 577 628 
678 727 574 523 524 775 525 776 526 
527 728 578 679 629 630 680 681 631 
632 633 634 635 636 637 638 639 691 
690 740 742 692 693 744 694 745 746 
696 747 748 749 750 800 1221 1218 1219 
1222 1223 1220 704 754 755 705 706 756 
757 707 708 758 709 710 711 665 664 
666 669 673 726 674 725 720 721 722 
723 724 771 772 773 822 774 823 824 
825 777 826 827 778 828 729 779 730 
780 731 732 682 733 683 684 734 735 
685 736 686 687 688 738 689 741 791 
743 793 794 795 796 797 798 848 799 
849 850 1224 1225 1228 1229 1226 804 854 
855 805 806 856 857 807 808 759 809 
760 712 761 713 714 668 715 670 716 
717 672 718 767 719 768 769 770 819 
818 820 821 871 872 873 874 875 876 
877 878 829 879 830 781 831 832 782 
783 784 785 786 737 787 788 739 789 
841 790 842 792 843 844 845 846 897 
847 898 899 900 950 1227 1230 1231 1232 
1235 904 954 955 905 906 956 907 908 
858 859 810 860 811 861 762 812 763 
813 764 814 765 815 766 816 817 867 
868 869 870 920 921 922 923 974 924 
975 925 976 926 927 928 929 930 880 
881 882 883 833 884 834 835 836 837 
838 839 840 892 891 893 894 895 946 
896 947 948 998 949 999 1000 1050 1233 
1236 1234 1237 1238 1004 1054 1055 1005 1056 
1006 957 1007 1008 958 909 959 960 910 
911 912 862 913 863 914 864 915 865 
916 866 917 918 919 969 970 971 972 
1023 973 1024 1025 1026 1027 1028 977 978 
979 980 981 931 982 932 933 934 885 
935 936 886 937 887 888 889 890 942 
943 994 944 995 945 996 997 1048 1049 
1099 1100 1239 1240 1244 1241 1104 1105 1106 
1057 1058 1059 1009 1060 1010 1011 961 1012 
962 1013 963 1014 964 965 966 967 968 
1019 1020 1072 1021 1073 1022 1074 1075 1076 
1077 1078 1079 1080 1029 1030 1031 1032 1033 
983 1034 1035 984 985 986 987 988 938 
989 939 990 940 941 993 992 1043 1044 
1045 1046 1097 1047 1148 1098 1149 1150 1242 
1243 1154 1158 1156 1107 1108 1109 1110 1111 
1112 1113 1061 1114 1062 1063 1064 1065 1066 
1015 1067 1016 1068 1017 1069 1018 1070 1122 
1071 1123 1124 1125 1126 1127 1128 1129 1130 
1131 1132 1133 1081 1134 1082 1083 1084 1085 
1086 1087 1036 1088 1037 1089 1038 1039 1040 
1041 991 1042 1094 852 1145 1095 1146 1096 
803 1147 802 801 753 1245 1246 1247 1155 
1157 1159 1160 1161 1162 1163 1164 1165 1166 
1167 1115 1168 1116 1169 1117 1118 1170 1119 
1171 1120 1172 1173 1121 1174 1175 1153 1152 
1151 1103 1102 1101 1053 1052 1051 1003 1002 
1135 1001 1136 953 1137 952 1138 951 1139 
1140 902 1141 1090 1142 1091 1092 1143 1144 
1093 52 851 51 3 2 1 1248 676 
626 752 751 703 701 702 653 651 652 
603 601 602 553 551 552 503 501 502 
453 451 452 403 402 353 401 352 303 
351 302 253 301 252 251 203 202 201 
153 152 151 103 903 102 101 901 853 
53 
C_[0] 1 1324 double
0 0 0 0 2.1198099116e-23 1.7671122086e-17 3.2367090103e-20 7.7626787304e-15 1.0611304077e-16 
5.543606864e-15 1.8477352671e-15 5.5433692748e-15 5.5432904948e-15 1.8475540185e-15 1.2936750691e-14 1.8476418475e-15 5.5433476987e-15 5.0497758037e-09 
7.9780463532e-09 2.024546975e-08 4.2146774547e-08 8.0661834049e-08 3.5789159735e-07 5.5593629123e-07 1.3855150804e-07 9.006124136e-07 2.1511258093e-07 
3.1445137992e-07 1.5616715555e-06 1.8855400302e-06 2.6885542325e-06 4.2734384636e-07 2.002668289e-06 2.2696745666e-06 4.8336536497e-07 4.6251224213e-07 
2.0474538927e-06 1.6242884211e-06 3.7834649761e-07 1.2601832598e-06 8.5344638513e-07 2.6984682988e-07 1.7951465589e-07 4.9308542631e-07 1.2165911706e-07 
2.4572404082e-07 8.2030450857e-08 5.0249698627e-08 1.1185019771e-07 2.8135876404e-08 5.7077954339e-08 1.4779648654e-08 2.269625388e-08 6.8402070164e-09 
2.6846186486e-09 8.7631648397e-09 2.8258871955e-09 9.9588436796e-10 1.2119193594e-09 3.3935002785e-10 1.049491488e-10 4.0308846234e-10 1.3679764002e-10 
3.0224606831e-11 4.7733137446e-11 1.5957023373e-11 7.1672386495e-12 1.6413741765e-12 4.8517391747e-12 1.5031688302e-12 3.09125823e-13 4.2642351212e-13 
1.0370665322e-13 5.8568944128e-14 2.2518697218e-14 4.1047353797e-15 8.5264645815e-15 1.3909007272e-15 7.2004771437e-16 1.522115123e-16 9.1588075529e-17 
2.3148238053e-17 1.3914544969e-17 1.5445762683e-18 2.2889137124e-18 3.4704517918e-19 1.5397462259e-19 2.5105854231e-20 1.9353800077e-19 1.2321054332e-20 
3.2507365048e-21 9.6367618843e-21 7.096543198e-22 1.4433840183e-21 5.9054185675e-23 7.6886378822e-23 6.143322324e-24 1.8541209699e-23 4.8154451874e-29 
2.5238937847e-30 0 0 0 0 0 0 5.538639756e-15 2.9843682216e-09 
9.7058566698e-09 7.1969967151e-08 5.9868304886e-08 8.4537665169e-07 1.9711304558e-07 1.1551567076e-06 1.5709260557e-06 5.9627117851e-06 7.0968271227e-06 
2.1480833648e-05 1.665900815e-05 2.2941924614e-05 1.5258421623e-05 1.249188669e-05 9.0556136768e-06 6.0858849412e-06 3.817448804e-06 2.1274804062e-06 
7.6581748505e-06 1.2224033436e-06 3.8855143594e-06 5.9979687323e-07 1.9446779618e-06 3.3117702653e-07 8.7437175642e-07 1.3781491995e-07 3.6081643254e-07 
5.8255003956e-08 1.0524892619e-07 4.0916250648e-08 1.5309143666e-08 1.2858518155e-08 4.1440546279e-09 1.5449936994e-09 5.1130482939e-10 1.8124717648e-10 
5.3931721074e-11 1.9251093373e-11 6.2968855363e-12 1.9433791139e-12 5.7849577794e-13 1.6702665574e-13 4.2572960666e-14 1.0199032397e-14 2.1424551584e-15 
4.764449353e-16 8.8194916728e-17 1.4722430088e-17 1.2743067691e-17 1.3802923458e-18 2.2108656366e-18 3.4699177452e-19 5.457343307e-20 4.2436714442e-21 
7.4585294218e-21 4.8874821419e-22 1.0039418127e-21 1.2946967315e-22 1.631603468e-27 3.9883253059e-28 7.767196617e-29 2.0634992325e-30 0 
0 0 0 0 1.5111142922e-15 2.2454635605e-13 1.6417956738e-12 7.9728594369e-08 5.7098344228e-07 
4.1090400327e-07 1.9186427717e-06 3.206153424e-06 1.3595988631e-05 3.5857604518e-06 7.7068031134e-06 4.4959225289e-05 1.4703889739e-05 3.1427949376e-05 
3.777007139e-05 8.0882841808e-05 0.00011041044232 4.1035401784e-05 0.00017065623624 0.00010393147635 7.0789905878e-05 4.5657349843e-05 2.6195875569e-05 
9.0079001884e-05 1.45523065e-05 4.0853699175e-05 1.9742434782e-05 8.7958843716e-06 3.5773735474e-06 9.2492066218e-06 1.363848979e-06 3.0265376516e-06 
5.1024531899e-07 1.1059792326e-06 2.0314874099e-07 2.9464030787e-07 5.43620899e-08 1.5917697702e-08 3.2038539303e-09 3.3774139689e-09 6.9355619173e-10 
1.7860291019e-10 4.7617659766e-11 1.3721408926e-11 3.8261121671e-12 1.1041945132e-12 2.9584610153e-13 8.6801758529e-14 2.2345307334e-14 5.7775470413e-15 
1.422118462e-15 3.0917781518e-16 2.0598014373e-16 6.3899486594e-17 4.621132884e-17 9.0840690659e-18 1.7213221561e-18 3.1722932876e-19 4.8647677791e-20 
4.3856050855e-20 7.095156903e-21 1.1660238496e-21 7.0039422924e-27 3.5793334176e-28 0 0 0 0 
0 0 0 3.7135180836e-14 2.7471768643e-13 7.4134264364e-12 1.652558429e-11 4.6069728518e-06 8.3384209731e-06 
3.9024442805e-05 1.289363465e-05 5.0096524061e-05 0.00018903804311 5.4960008498e-05 0.00015555190985 0.00032260933375 0.00010335341162 0.00019440551987 
0.00063401405694 0.00091930725672 0.00031103796358 0.00040202934912 0.0011176995957 0.0003279111759 0.00096429961943 0.00055320025852 0.00032774876397 
0.00071261778814 0.00017056596281 0.00036570559939 0.00014642321473 0.0002623386633 6.7681268018e-05 8.4101595231e-05 2.3456427769e-05 3.3342544436e-05 
3.7061425787e-05 9.3751656116e-06 1.2652038883e-05 3.0264713593e-06 2.8843280096e-06 7.6599323956e-07 1.0268125965e-07 2.1794797772e-07 2.4026856845e-08 
5.1924197872e-08 7.0197572976e-09 9.1202134514e-10 1.4781075253e-09 2.0970715531e-10 5.1533600857e-11 1.3227514179e-11 3.5834788993e-12 9.1132972975e-13 
2.5640401341e-13 6.218048178e-14 1.6282862712e-14 3.8946434744e-15 9.5005593633e-16 8.2829888051e-16 1.8477836403e-16 3.6382129624e-17 7.3570803365e-18 
1.4019694342e-18 2.4639674717e-19 5.0904549868e-19 9.2981954802e-20 1.6236104322e-20 2.8303364056e-21 1.9916998937e-26 1.7444534406e-27 5.3413690073e-28 
0 0 0 0 0 0 2.2619377367e-12 9.9504206346e-11 1.8234353839e-07 
7.8745032647e-06 2.8248513296e-05 0.0001844562239 0.00019258277074 0.00073688688335 0.00065039351381 0.00049265529679 0.0016116361259 0.0028295002018 
0.0010761429113 0.0017177789995 0.0049900680359 0.0062226876792 0.0026979036186 0.0027866026497 0.0067844392932 0.0056562649743 0.0024362750658 
0.0014460682083 0.0031579045559 0.0016497807666 0.0030374815665 0.0013689593522 0.00059207680987 0.00039303375688 0.00092817590652 0.0001495238863 
0.00023772081346 7.974544e-05 1.8244873825e-05 5.2490075626e-06 8.9256695744e-07 1.0537872401e-06 3.317144127e-07 1.7615097845e-07 5.6141368746e-08 
1.5601056412e-08 1.1132700368e-08 3.6080098689e-09 3.3404966593e-10 9.0833614987e-10 1.6840377321e-10 7.131803385e-11 4.1867795357e-11 1.6560412822e-11 
3.8364841982e-12 1.0061767702e-12 2.4630137161e-13 6.153392943e-14 1.5110169691e-14 3.5558851179e-15 1.8542909756e-15 3.8426507818e-16 7.3692663254e-17 
1.4992147811e-17 2.7549264053e-18 7.7008818328e-18 1.3691226951e-18 2.3371682859e-19 4.1501024812e-20 7.1855020783e-21 4.2684337705e-21 1.2097184062e-21 
7.9582432655e-27 3.3715324369e-27 0 0 0 0 0 3.2405999249e-11 7.0794372533e-10 
7.275907149e-05 0.00018370005311 0.00091788445843 0.00081552560795 0.002836916677 0.0071434361877 0.0022234262992 0.004608764981 0.013957300815 
0.02062307248 0.0083944690072 0.011736565198 0.029179554041 0.032045895141 0.01529500968 0.014680491372 0.030550382505 0.024702200584 
0.011751343856 0.0073113293529 0.013355902769 0.0069786165599 0.011557401881 0.0052284992032 0.0023455642124 0.0016271210016 0.0010437532177 
0.00054616129936 0.00032271517246 0.00014417722314 8.8903551085e-05 4.2278952612e-05 2.2490328326e-05 9.5016057938e-06 5.493120787e-06 2.3679173915e-06 
1.4096493996e-06 4.9717706073e-07 1.3940158408e-07 6.5652629914e-08 1.7741012558e-08 3.2066449853e-09 3.2999274686e-09 5.8887163076e-10 1.5742513114e-10 
3.3117513275e-11 9.3766732565e-12 2.4924654493e-12 5.8174656712e-13 1.4519372273e-13 3.4989940238e-14 2.9314117848e-14 7.8484745707e-15 6.8240008269e-15 
1.278300709e-15 2.575210086e-16 4.5223700322e-17 3.2837811785e-17 5.27795412e-18 8.2077157944e-19 1.443500193e-19 2.2940667692e-20 1.7245953068e-20 
2.6560178531e-21 2.9619768549e-26 2.3234238708e-26 1.649671097e-27 0 0 0 0 0 
1.9957304207e-10 6.5243641425e-09 0.00048617169896 0.005790888322 0.0038547540682 0.016317059467 0.010307996152 0.037514287028 0.06421793599 
0.022825105006 0.035973354484 0.091848087723 0.1105000566 0.05205990296 0.06131032601 0.1259738391 0.12413499722 0.066424742658 
0.059905176347 0.10461194739 0.082521604325 0.043239369961 0.028066901821 0.043455872044 0.024725547628 0.008953824731 0.016748488855 
0.0057833310335 0.0035130062342 0.0023623265491 0.00074494698418 0.00076952551002 0.00027266975287 9.4875495679e-05 0.00010435259553 2.8805156422e-05 
1.8153516083e-05 6.0854682963e-06 7.4339434193e-06 2.3713269548e-06 8.4821002869e-07 3.46037767e-07 3.3220337991e-08 9.5296763759e-08 2.718567585e-08 
8.1133293789e-09 1.9918827523e-09 9.7078405952e-10 7.0027023699e-10 1.8696814705e-10 5.9407776339e-11 1.5526248004e-11 1.0008012262e-11 3.9236316573e-12 
2.3347791225e-12 9.7421862707e-13 5.8041917319e-13 2.1456554866e-13 1.4319481925e-13 4.1414645162e-14 8.0429810119e-15 1.4745409034e-15 1.357813263e-15 
2.1743991007e-16 1.8890698628e-16 2.5202419132e-17 3.9319018189e-18 6.1384118224e-19 9.3135968372e-20 8.6220295955e-20 1.3393849629e-20 2.591373424e-21 
1.7494780974e-26 2.0790237542e-27 0 0 0 0 0 5.8386628724e-09 4.9612833739e-08 
0.0042650899087 0.029883580159 0.074803454669 0.12024741942 0.16921384257 0.19765246065 0.22314026784 0.22573724357 0.21071536637 
0.33448822589 0.18081846735 0.26371573464 0.20234820972 0.12172893489 0.081004589957 0.11455525276 0.066594309815 0.034668620856 
0.032761619735 0.016376629792 0.0077086421539 0.003407409592 0.002148643073 0.00067497890213 0.00018504443204 0.00015635568288 2.5464292417e-05 
9.9881864835e-07 1.0654340263e-06 2.2048180028e-06 8.2650130088e-07 5.777960246e-07 2.511641224e-07 7.7113931695e-08 2.3558546515e-08 1.4280591523e-08 
5.0967807446e-09 7.9722566697e-09 2.3292178002e-09 9.597419628e-10 1.6700459688e-10 6.774307366e-11 1.9561312819e-11 5.7477847072e-12 9.5438375538e-13 
1.7761898878e-13 4.0888809226e-14 1.9604882644e-14 5.3291114729e-15 2.7562448587e-15 4.503853129e-16 2.1085177365e-16 3.2465138165e-17 3.9091275994e-17 
5.7800230054e-18 3.5198664986e-18 5.3359504141e-19 6.5256014357e-19 9.9170200619e-20 1.6440719438e-20 2.6383091919e-21 2.2050132433e-26 1.8850215291e-27 
0 3.6290526071e-06 1.0502140637e-06 1.6889274472e-06 3.7727807366e-06 1.8664223421e-06 3.8676085221e-06 0.99999617473 0.04158102852 
0.20639497444 0.78829052678 0.2768979924 0.72372210611 0.66212929922 0.33050230745 0.3633197002 0.62646663551 0.59936382326 
0.38087253887 0.38142360487 0.56816844121 0.53184400042 0.36660475999 0.45348197931 0.3847093931 0.25146223992 0.17515751603 
0.089535668146 0.049159769392 0.025800806725 0.012770102021 0.0074989830003 0.0035885275332 0.00068160070486 0.00037536536984 7.0143151744e-05 
0.00010810768838 1.3637876579e-05 2.011257756e-05 1.6350484056e-05 1.31192117e-05 2.413703641e-05 1.9646707483e-05 1.5927296263e-05 1.2776848913e-05 
2.9087959877e-05 2.3782222889e-05 1.9317187823e-05 1.9345684205e-05 2.8849375393e-05 2.3530509617e-05 1.7179122437e-05 2.1425747033e-05 2.6410833137e-05 
3.5107153309e-05 2.8791703204e-05 2.3446844712e-05 1.5378752345e-05 1.923464769e-05 2.383958781e-05 2.9343914769e-05 3.5760053328e-05 2.9150732116e-05 
2.3618578471e-05 2.1794097407e-05 2.7046641206e-05 3.3423181399e-05 3.7001450415e-05 3.0022567545e-05 2.4182080015e-05 2.5314449436e-05 3.1446751606e-05 
6.8365758062e-07 1.15848829e-06 1.0797101959e-05 8.4880098053e-06 1.0349224147e-05 8.1033407553e-06 6.3889721457e-06 5.0046609587e-06 1.0084408249e-05 
7.8997255165e-06 6.2373959703e-06 4.9223822264e-06 3.8288877409e-06 1.2473029251e-05 1.5509780761e-05 7.0303937237e-06 8.7952342598e-06 4.9015565034e-06 
3.8423067455e-06 2.9891835218e-06 1.0942231967e-05 1.3697034769e-05 4.9080241649e-06 6.190903544e-06 3.8986083213e-06 3.0525713342e-06 7.7423245669e-06 
9.7181035813e-06 1.2238022201e-05 3.9881283032e-06 3.1302681142e-06 2.4092959279e-06 3.6109408943e-06 4.519043034e-06 5.6350592769e-06 3.4348736344e-06 
4.0870938582e-06 3.2173195928e-06 2.4864754096e-06 4.3186311167e-06 2.574175878e-06 3.3101978357e-06 4.1866386688e-06 4.4533398334e-07 3.108055566e-07 
4.2578715785e-07 9.4454286023e-07 2.4790561902e-09 4.2877310207e-10 1.2520621154e-10 1.7570980248e-10 2.6285538427e-11 2.3682706159e-11 3.855344927e-12 
7.5540681459e-13 3.4162847686e-13 8.1154973087e-14 1.392672853e-14 5.4015425557e-15 7.6365940735e-16 1.1363166613e-15 1.7156854592e-16 8.9296782019e-17 
8.4124265991e-18 1.2226113456e-18 1.4948194656e-19 2.3245632613e-20 3.8948691461e-21 2.7691472189e-26 2.6883532347e-27 1.0645988306e-06 0.99999551578 
0.99999436523 0.99999525946 1 0.99999841019 0.99999625333 0.99999999805 0.99999802659 0.99999996364 0.99711677516 
0.95982920259 0.97430630199 0.92780632529 0.87983838949 0.82822192598 0.93169829127 0.89542650947 0.78090547513 0.73764714334 
0.84244209905 0.78312667182 0.66403352952 0.59317951051 0.66189005242 0.55356137198 0.44903774275 0.34177545315 0.3586355926 
0.24589642892 0.19143384622 0.1163536778 0.11872186092 0.05399767323 0.027544887313 0.012581496651 0.0014717573296 0.0022950533974 
0.00075030563294 0.00026966925398 2.0495435649e-05 2.8240513693e-06 7.0083117924e-06 2.0782970864e-06 7.265849999e-07 2.6250162664e-07 1.3229701259e-07 
4.4620780707e-08 1.7565397798e-08 3.6495272462e-08 1.1086535345e-08 3.5162380636e-09 3.5630470645e-09 8.7868832895e-10 9.916596801e-10 2.7732377253e-10 
7.1150770677e-11 3.5413807613e-12 1.2266247814e-11 2.0950787005e-12 3.7987250194e-13 2.7482520583e-13 4.1725952741e-14 3.2857286806e-14 3.2531330038e-15 
2.4968498316e-15 2.1291118678e-16 2.7635007619e-17 1.9037781338e-17 3.779980484e-18 1.8757473572e-18 2.6595599312e-19 4.0960671665e-19 6.3230085795e-20 
3.6437476594e-20 9.4970848695e-21 5.9240817859e-21 4.3069376462e-26 8.9384719573e-07 7.7581958447e-07 3.9942340705e-06 0.9999992917 0.99999872145 
1 1 0.99999999992 0.99999999667 0.99975971132 0.99546815578 0.98555139656 0.99656435141 0.96302986328 
0.98914713835 0.9739691875 0.94791147907 0.91178443927 0.93607053213 0.88258835265 0.83494873773 0.74872804723 0.75669123066 
0.63101019067 0.56866546061 0.42936025819 0.40576035276 0.27215652679 0.2337678032 0.1423030161 0.064822793408 0.060433903779 
0.027310843734 0.0060307314717 0.012137321351 0.0025623515983 0.0010880540964 0.00018343789163 0.0003799839338 6.3937209678e-05 0.00013522812082 
4.6457615448e-05 1.2213711953e-05 1.3909076052e-05 6.8956213297e-06 2.3586654123e-06 1.7136478787e-06 4.8071993303e-07 1.2210444262e-07 1.7822339449e-07 
8.9673245455e-07 5.0092608404e-08 1.1292797785e-08 6.7563223834e-09 1.4601141518e-09 3.7911397276e-10 9.1040684309e-11 2.124533996e-11 5.1536869944e-12 
1.001618131e-12 1.7839361957e-13 2.4143625836e-14 3.5837677693e-14 4.0349684111e-15 3.8595847934e-16 5.0342378129e-16 7.3236187519e-17 4.1638506983e-17 