# vtk DataFile Version 3.0
Generated by LAMMPS
ASCII
DATASET POLYDATA
POINTS 3969 float
-0.607843 -0.607843 0 -0.588235 -0.607843 0 -0.607843 -0.588235 0 
-0.588235 -0.588235 0 -0.568627 -0.607843 0 -0.54902 -0.607843 0 
-0.568627 -0.588235 0 -0.54902 -0.588235 0 -0.529412 -0.607843 0 
-0.509804 -0.607843 0 -0.529412 -0.588235 0 -0.509804 -0.588235 0 
-0.490196 -0.607843 0 -0.470588 -0.607843 0 -0.490196 -0.588235 0 
-0.470588 -0.588235 0 -0.45098 -0.607843 0 -0.431373 -0.607843 0 
-0.45098 -0.588235 0 -0.431373 -0.588235 0 -0.411765 -0.607843 0 
-0.392157 -0.607843 0 -0.411765 -0.588235 0 -0.392157 -0.588235 0 
-0.372549 -0.607843 0 -0.352941 -0.607843 0 -0.372549 -0.588235 0 
-0.352941 -0.588235 0 -0.333333 -0.607843 0 -0.313726 -0.607843 0 
-0.333333 -0.588235 0 -0.313726 -0.588235 0 -0.607843 -0.568627 0 
-0.588235 -0.568627 0 -0.607843 -0.54902 0 -0.588235 -0.54902 0 
-0.568627 -0.568627 0 -0.54902 -0.568627 0 -0.568627 -0.54902 0 
-0.54902 -0.54902 0 -0.529412 -0.568627 0 -0.509804 -0.568627 0 
-0.529412 -0.54902 0 -0.509804 -0.54902 0 -0.490196 -0.568627 0 
-0.470588 -0.568627 0 -0.490196 -0.54902 0 -0.470588 -0.54902 0 
-0.45098 -0.568627 0 -0.431373 -0.568627 0 -0.45098 -0.54902 0 
-0.431373 -0.54902 0 -0.411765 -0.568627 0 -0.392157 -0.568627 0 
-0.411765 -0.54902 0 -0.392157 -0.54902 0 -0.372549 -0.568627 0 
-0.352941 -0.568627 0 -0.352941 -0.54902 0 -0.372549 -0.54902 0 
-0.333333 -0.568627 0 -0.313726 -0.568627 0 -0.313726 -0.54902 0 
-0.333333 -0.54902 0 -0.607843 -0.529412 0 -0.588235 -0.529412 0 
-0.607843 -0.509804 0 -0.588235 -0.509804 0 -0.568627 -0.529412 0 
-0.54902 -0.529412 0 -0.568627 -0.509804 0 -0.54902 -0.509804 0 
-0.529412 -0.529412 0 -0.509804 -0.529412 0 -0.529412 -0.509804 0 
-0.509804 -0.509804 0 -0.470588 -0.509804 0 -0.490196 -0.509804 0 
-0.470588 -0.529412 0 -0.490196 -0.529412 0 -0.431373 -0.509804 0 
-0.45098 -0.509804 0 -0.431373 -0.529412 0 -0.45098 -0.529412 0 
-0.392157 -0.509804 0 -0.411765 -0.509804 0 -0.392157 -0.529412 0 
-0.411765 -0.529412 0 -0.352941 -0.509804 0 -0.372549 -0.509804 0 
-0.352941 -0.529412 0 -0.372549 -0.529412 0 -0.313726 -0.509804 0 
-0.333333 -0.509804 0 -0.313726 -0.529412 0 -0.333333 -0.529412 0 
-0.607843 -0.490196 0 -0.588235 -0.490196 0 -0.607843 -0.470588 0 
-0.588235 -0.470588 0 -0.568627 -0.490196 0 -0.54902 -0.490196 0 
-0.568627 -0.470588 0 -0.54902 -0.470588 0 -0.529412 -0.490196 0 
-0.509804 -0.490196 0 -0.529412 -0.470588 0 -0.509804 -0.470588 0 
-0.5 -0.491834 0 -0.47888 -0.5 0 -0.485181 -0.476203 0 
-0.463412 -0.47465 0 -0.462088 -0.485725 0 -0.449939 -0.499929 0 
-0.442291 -0.476106 0 -0.42679 -0.473241 0 -0.425412 -0.499343 0 
-0.416895 -0.485215 0 -0.401808 -0.49554 0 -0.408686 -0.465554 0 
-0.391695 -0.474829 0 -0.377612 -0.499853 0 -0.351877 -0.499837 0 
-0.375379 -0.480867 0 -0.363845 -0.473793 0 -0.349725 -0.462706 0 
-0.331458 -0.49401 0 -0.340706 -0.476737 0 -0.32376 -0.46892 0 
-0.309954 -0.499075 0 -0.607843 -0.45098 0 -0.588235 -0.45098 0 
-0.607843 -0.431373 0 -0.588235 -0.431373 0 -0.568627 -0.45098 0 
-0.54902 -0.45098 0 -0.568627 -0.431373 0 -0.54902 -0.431373 0 
-0.529412 -0.45098 0 -0.509804 -0.45098 0 -0.529412 -0.431373 0 
-0.509804 -0.431373 0 -0.474805 -0.457604 0 -0.489418 -0.444118 0 
-0.5 -0.463141 0 -0.5 -0.42856 0 -0.476385 -0.424508 0 
-0.466087 -0.441083 0 -0.453027 -0.455005 0 -0.440949 -0.4424 0 
-0.426981 -0.45221 0 -0.418305 -0.435337 0 -0.402271 -0.444283 0 
-0.390812 -0.429075 0 -0.386336 -0.456117 0 -0.374888 -0.445932 0 
-0.370449 -0.425961 0 -0.356299 -0.444869 0 -0.340744 -0.437901 0 
-0.326406 -0.450801 0 -0.314892 -0.4398 0 -0.607843 -0.411765 0 
-0.588235 -0.411765 0 -0.607843 -0.392157 0 -0.588235 -0.392157 0 
-0.568627 -0.411765 0 -0.54902 -0.411765 0 -0.568627 -0.392157 0 
-0.54902 -0.392157 0 -0.529412 -0.411765 0 -0.509804 -0.411765 0 
-0.529412 -0.392157 0 -0.509804 -0.392157 0 -0.490573 -0.4088 0 
-0.48432 -0.393937 0 -0.469348 -0.389369 0 -0.445877 -0.422362 0 
-0.462003 -0.418173 0 -0.454727 -0.397121 0 -0.440025 -0.393934 0 
-0.430216 -0.417099 0 -0.407495 -0.418289 0 -0.421108 -0.401467 0 
-0.403239 -0.397337 0 -0.386789 -0.408314 0 -0.373271 -0.401776 0 
-0.355942 -0.418613 0 -0.355558 -0.397047 0 -0.334092 -0.421102 0 
-0.338914 -0.401932 0 -0.319673 -0.401006 0 -0.315001 -0.419052 0 
-0.607843 -0.372549 0 -0.588235 -0.372549 0 -0.607843 -0.352941 0 
-0.588235 -0.352941 0 -0.568627 -0.372549 0 -0.54902 -0.372549 0 
-0.568627 -0.352941 0 -0.54902 -0.352941 0 -0.529412 -0.372549 0 
-0.509804 -0.372549 0 -0.529412 -0.352941 0 -0.509804 -0.352941 0 
-0.49753 -0.380269 0 -0.478767 -0.369441 0 -0.483978 -0.354916 0 
-0.431104 -0.375929 0 -0.449412 -0.372023 0 -0.461407 -0.36113 0 
-0.441025 -0.35253 0 -0.414568 -0.377066 0 -0.425622 -0.352048 0 
-0.407992 -0.358835 0 -0.394961 -0.380419 0 -0.390615 -0.355889 0 
-0.364709 -0.378152 0 -0.379638 -0.375829 0 -0.374482 -0.349205 0 
-0.359898 -0.353525 0 -0.333934 -0.38081 0 -0.347266 -0.371777 0 
-0.343389 -0.349292 0 -0.326518 -0.35654 0 -0.31755 -0.374651 0 
-0.607843 -0.333333 0 -0.588235 -0.333333 0 -0.607843 -0.313726 0 
-0.588235 -0.313726 0 -0.568627 -0.333333 0 -0.54902 -0.333333 0 
-0.568627 -0.313726 0 -0.54902 -0.313726 0 -0.529412 -0.333333 0 
-0.509804 -0.333333 0 -0.529412 -0.313726 0 -0.509804 -0.313726 0 
-0.497363 -0.343838 0 -0.473145 -0.331954 0 -0.480416 -0.320525 0 
-0.495328 -0.311559 0 -0.459929 -0.340131 0 -0.446097 -0.328936 0 
-0.452172 -0.311451 0 -0.429388 -0.324288 0 -0.41519 -0.334745 0 
-0.397884 -0.336053 0 -0.423594 -0.306175 0 -0.406113 -0.313038 0 
-0.39087 -0.305609 0 -0.383571 -0.326871 0 -0.372221 -0.308121 0 
-0.364985 -0.327562 0 -0.313111 -0.344462 0 -0.316525 -0.31906 0 
-0.33029 -0.332107 0 -0.336359 -0.30938 0 -0.34851 -0.327147 0 
-0.607843 -0.294118 0 -0.588235 -0.294118 0 -0.607843 -0.27451 0 
-0.588235 -0.27451 0 -0.568627 -0.294118 0 -0.54902 -0.294118 0 
-0.568627 -0.27451 0 -0.54902 -0.27451 0 -0.529412 -0.294118 0 
-0.509804 -0.294118 0 -0.529412 -0.27451 0 -0.509804 -0.27451 0 
-0.49975 -0.283519 0 -0.481588 -0.276212 0 -0.464378 -0.272909 0 
-0.478884 -0.296612 0 -0.464486 -0.300324 0 -0.448965 -0.27773 0 
-0.441568 -0.296508 0 -0.426651 -0.28447 0 -0.415337 -0.26971 0 
-0.39631 -0.273304 0 -0.407066 -0.29118 0 -0.38372 -0.284877 0 
-0.365527 -0.285991 0 -0.354062 -0.304096 0 -0.335364 -0.270814 0 
-0.346242 -0.284226 0 -0.326644 -0.294246 0 -0.316352 -0.277577 0 
-0.607843 -0.254902 0 -0.588235 -0.254902 0 -0.607843 -0.235294 0 
-0.588235 -0.235294 0 -0.568627 -0.254902 0 -0.54902 -0.254902 0 
-0.568627 -0.235294 0 -0.54902 -0.235294 0 -0.529412 -0.254902 0 
-0.509804 -0.254902 0 -0.529412 -0.235294 0 -0.509804 -0.235294 0 
-0.48088 -0.25753 0 -0.473559 -0.235096 0 -0.493162 -0.24595 0 
-0.439538 -0.263163 0 -0.462043 -0.249942 0 -0.447325 -0.241847 0 
-0.428832 -0.231892 0 -0.426008 -0.252677 0 -0.405302 -0.250467 0 
-0.408642 -0.231388 0 -0.389702 -0.245451 0 -0.378486 -0.262211 0 
-0.361304 -0.266108 0 -0.372125 -0.241755 0 -0.357465 -0.234173 0 
-0.348802 -0.253315 0 -0.331146 -0.250322 0 -0.323874 -0.232222 0 
-0.312132 -0.259797 0 -0.607843 -0.215686 0 -0.588235 -0.215686 0 
-0.607843 -0.196078 0 -0.588235 -0.196078 0 -0.568627 -0.215686 0 
-0.54902 -0.215686 0 -0.568627 -0.196078 0 -0.54902 -0.196078 0 
-0.529412 -0.215686 0 -0.509804 -0.215686 0 -0.529412 -0.196078 0 
-0.509804 -0.196078 0 -0.464755 -0.222236 0 -0.495955 -0.222619 0 
-0.480215 -0.208892 0 -0.466745 -0.197779 0 -0.488089 -0.193051 0 
-0.443398 -0.222395 0 -0.449488 -0.203982 0 -0.428993 -0.201356 0 
-0.393574 -0.219208 0 -0.416709 -0.213227 0 -0.399627 -0.199993 0 
-0.413933 -0.188588 0 -0.378793 -0.21895 0 -0.363031 -0.212415 0 
-0.372437 -0.194942 0 -0.353163 -0.190146 0 -0.340778 -0.227549 0 
-0.343316 -0.208142 0 -0.327267 -0.203322 0 -0.312907 -0.217864 0 
-0.607843 -0.176471 0 -0.588235 -0.176471 0 -0.607843 -0.156863 0 
-0.588235 -0.156863 0 -0.568627 -0.176471 0 -0.54902 -0.176471 0 
-0.568627 -0.156863 0 -0.54902 -0.156863 0 -0.529412 -0.176471 0 
-0.509804 -0.176471 0 -0.529412 -0.156863 0 -0.509804 -0.156863 0 
-0.474016 -0.174735 0 -0.497846 -0.178907 0 -0.473325 -0.156199 0 
-0.491569 -0.15604 0 -0.443374 -0.185519 0 -0.428283 -0.174841 0 
-0.457845 -0.174261 0 -0.436301 -0.158509 0 -0.454106 -0.152676 0 
-0.386801 -0.186961 0 -0.399445 -0.171608 0 -0.412353 -0.161312 0 
-0.366054 -0.173008 0 -0.380964 -0.163072 0 -0.350353 -0.163777 0 
-0.338146 -0.180303 0 -0.321805 -0.183655 0 -0.326814 -0.159143 0 
-0.310619 -0.163828 0 -0.607843 -0.137255 0 -0.588235 -0.137255 0 
-0.607843 -0.117647 0 -0.588235 -0.117647 0 -0.568627 -0.137255 0 
-0.54902 -0.137255 0 -0.568627 -0.117647 0 -0.54902 -0.117647 0 
-0.529412 -0.137255 0 -0.509804 -0.137255 0 -0.529412 -0.117647 0 
-0.509804 -0.117647 0 -0.463019 -0.135967 0 -0.477632 -0.129087 0 
-0.46316 -0.113621 0 -0.498375 -0.136333 0 -0.438585 -0.137004 0 
-0.443986 -0.120351 0 -0.421204 -0.143668 0 -0.391171 -0.148423 0 
-0.404483 -0.13568 0 -0.421587 -0.119828 0 -0.390735 -0.124034 0 
-0.365128 -0.148055 0 -0.374165 -0.133947 0 -0.351718 -0.130995 0 
-0.341077 -0.147357 0 -0.311808 -0.142314 0 -0.341405 -0.117563 0 
-0.326698 -0.13149 0 -0.607843 -0.0980392 0 -0.588235 -0.0980392 0 
-0.607843 -0.0784314 0 -0.588235 -0.0784314 0 -0.568627 -0.0980392 0 
-0.54902 -0.0980392 0 -0.568627 -0.0784314 0 -0.54902 -0.0784314 0 
-0.529412 -0.0980392 0 -0.509804 -0.0980392 0 -0.529412 -0.0784314 0 
-0.509804 -0.0784314 0 -0.484699 -0.112899 0 -0.47481 -0.089186 0 
-0.493425 -0.0995165 0 -0.494435 -0.0785649 0 -0.428126 -0.10116 0 
-0.448986 -0.101744 0 -0.458606 -0.0865002 0 -0.438247 -0.0783533 0 
-0.408417 -0.110172 0 -0.3969 -0.0955208 0 -0.418741 -0.0869993 0 
-0.399256 -0.0758999 0 -0.379954 -0.10766 0 -0.36535 -0.112323 0 
-0.352812 -0.0985435 0 -0.381246 -0.0847972 0 -0.36218 -0.083348 0 
-0.320152 -0.112744 0 -0.333758 -0.095862 0 -0.307633 -0.103217 0 
-0.325183 -0.0828956 0 -0.307769 -0.0821342 0 -0.607843 -0.0588235 0 
[...]
POINT_DATA 3969
FIELD FieldData 5
id 1 3969 int
161 162 167 168 163 164 169 170 165 
166 171 172 107 108 123 124 109 110 
125 126 111 112 127 128 113 114 129 
130 115 116 131 132 173 174 179 180 
175 176 181 182 177 178 183 184 139 
140 155 156 141 142 157 158 143 144 
159 160 145 146 153 154 147 148 151 
152 185 186 191 192 187 188 193 194 
189 190 195 196 119 120 149 150 117 
118 137 138 105 106 135 136 103 104 
133 134 101 102 121 122 197 198 203 
204 199 200 205 206 201 202 207 208 
1013 1015 1499 2242 1019 1021 1759 2628 1023 
2645 2470 280 1832 1411 2483 1732 3387 1504 
263 771 1808 2546 209 210 215 216 211 
212 217 218 213 214 219 220 2788 1016 
1009 9 622 623 1779 1780 531 1775 1816 
62 1774 1793 1809 770 759 1790 1307 221 
222 227 228 223 224 229 230 225 226 
231 232 1803 1529 1794 292 1798 571 1046 
610 1665 632 13 73 791 1683 1276 1602 
1076 1486 85 233 234 239 240 235 236 
241 242 237 238 243 244 2487 1776 2790 
390 1646 369 792 354 1657 33 586 1101 
344 19 1109 1324 1043 503 1151 1252 1519 
245 246 251 252 247 248 253 254 249 
250 255 256 1592 2769 2753 614 2531 320 
260 570 1395 1129 1576 556 313 1088 1267 
1266 1643 1275 1290 1139 1153 407 408 413 
414 409 410 415 416 411 412 417 418 
1017 96 564 2748 540 43 1099 1452 1453 
1110 333 1597 1305 1104 1344 1359 1371 1400 
419 420 425 426 421 422 427 428 423 
424 429 430 611 1778 655 1614 1293 1051 
1501 1588 1295 1135 1325 1121 1482 1496 1373 
1455 1358 1346 1362 431 432 437 438 433 
434 439 440 435 436 441 442 1745 86 
1058 36 2738 554 330 1084 1118 1599 1147 
1261 355 1423 1119 1321 1555 1572 1374 1345 
443 444 449 450 445 446 451 452 447 
448 453 454 1730 1022 612 782 1640 542 
1610 270 1815 506 1090 1647 1133 381 1320 
1541 1441 1478 1539 455 456 461 462 457 
458 463 464 459 460 465 466 781 654 
1782 1020 301 520 1091 1645 1059 1637 1092 
1257 592 1134 1120 1510 1437 1137 467 468 
473 474 469 470 475 476 471 472 477 
478 400 590 1012 1725 1560 2806 1081 1651 
1593 1556 1323 314 1152 1281 1304 1396 1351 
1336 1525 1479 1394 1419 479 480 485 486 
481 482 487 488 483 484 489 490 644 
1143 2471 7 1598 1830 560 1633 1656 1532 
1140 1136 1551 1149 1365 1253 1258 1512 1289 
491 492 493 494 495 496 1018 1618 1763 
1438 1791 63 1611 523 534 1483 1689 284 
304 1262 1534 1291 1537 657 658 663 664 
659 660 665 666 661 662 667 668 2658 
2674 312 2721 34 1338 550 396 1543 1688 
1521 555 1087 1506 1108 1616 1586 1565 1491 
1282 1489 669 670 675 676 671 672 677 
678 673 674 679 680 2034 1770 2725 1368 
2770 1547 1761 1264 1639 545 1063 1369 1070 
1141 1612 575 1574 1297 1430 681 682 687 
688 683 684 689 690 685 686 691 692 
2706 1814 1487 1622 1813 510 1728 2802 2517 
1155 55 1672 45 1107 1049 1123 1399 1114 
90 693 694 699 700 695 696 701 702 
697 698 703 704 501 1784 392 1726 1661 
53 1797 1792 1795 1735 530 275 30 282 
1600 346 515 505 1115 705 706 711 712 
707 708 713 714 709 710 715 716 1533 
1986 646 1577 2 331 302 1738 380 66 
1590 1743 653 1760 97 2805 1398 601 500 
760 717 718 723 724 719 720 725 726 
721 722 727 728 1652 1729 1 1484 2678 
1787 1756 2018 1764 633 772 1041 1062 1749 
44 76 1605 1566 1079 729 730 735 736 
731 732 737 738 733 734 739 740 1014 
4 21 1786 5 1742 6 581 1769 1054 
1680 1080 521 1800 261 1796 321 38 1549 
741 742 747 748 743 744 749 750 745 
746 751 752 31 41 61 2610 11 1531 
1741 512 1767 1687 1518 1783 1762 48 391 
361 551 1801 98 913 914 919 920 915 
916 921 922 917 918 923 924 257 1693 
1677 91 1383 2580 1620 1664 1650 2564 1675 
1723 2547 1746 1744 532 1765 1772 58 925 
926 931 932 927 928 933 934 929 930 
935 936 357 596 2066 507 547 1098 71 
1128 20 594 1033 1503 8 1038 1563 553 
1514 393 1517 1739 937 938 943 944 939 
940 945 946 941 942 947 948 397 1026 
597 647 557 317 1558 1607 1397 1559 1673 
22 1621 514 10 1578 1488 1035 949 950 
955 956 951 952 957 958 953 954 959 
960 577 753 783 793 527 72 558 348 
617 327 627 537 754 297 587 1028 598 
377 1112 517 51 961 962 967 968 963 
964 969 970 965 966 971 972 774 803 
833 843 813 814 844 773 784 845 823 
804 846 764 847 638 834 763 848 973 
974 979 980 975 976 981 982 977 978 
983 984 859 860 875 876 861 862 877 
878 863 864 879 880 865 866 881 882 
867 868 883 884 985 986 991 992 987 
988 993 994 989 990 995 996 891 892 
907 908 893 894 909 910 895 896 911 
912 897 898 905 906 899 900 903 904 
997 998 1003 1004 999 1000 1005 1006 1001 
1002 1007 1008 871 872 901 902 869 870 
889 890 857 858 887 888 855 856 885 
886 874 873 853 854 1159 1160 1174 1175 
1161 1162 1176 1177 1163 1164 1178 1179 1165 
1166 1180 1181 1167 1168 1182 1183 1169 1170 
1184 1185 1171 1172 1186 1187 1173 1188 1189 
1190 1204 1205 1191 1192 1206 1207 1193 1194 
1208 1209 1195 1196 1210 1211 1197 1198 1212 
1213 1199 1200 1214 1215 1201 1202 1216 1217 
1203 1218 1219 1220 1234 1235 1221 1222 1236 
1237 1223 1224 1238 1239 1225 1226 1240 1241 
1227 1228 1242 1243 1229 1230 1244 1245 1231 
1232 1246 1247 1233 1248 2728 54 65 370 
2799 1788 621 642 3374 1748 3229 1818 582 
652 1158 2781 1992 1064 3462 2818 84 559 
1810 1308 2715 2795 1833 1777 3384 2821 519 
1126 379 1580 1029 640 334 1682 574 27 
1277 1044 779 584 83 1608 499 271 1658 
1591 1737 758 780 801 1826 2808 1827 14 
600 359 82 768 88 562 1339 1691 1535 
1354 1094 1298 1581 1381 1069 1674 1148 1093 
382 1596 1296 1425 1095 375 1067 1073 1292 
342 651 1513 339 1096 802 2796 589 1265 
1131 1263 1294 1310 1124 1259 1138 325 1117 
345 1573 1125 1520 89 522 1089 50 1546 
1642 366 1516 1306 812 26 767 516 2534 
403 1824 1524 1456 1387 1328 1386 1401 1416 
1492 1357 1538 1632 1102 283 356 1554 1567 
406 1477 552 1628 336 1507 1071 1127 1024 
1550 790 566 1717 1343 1331 1431 1372 1317 
1348 1341 1569 1105 1446 1286 1370 1314 285 
1342 1568 1409 1445 1122 1511 1045 1260 1146 
1156 99 1627 265 266 1648 799 1100 529 
1669 1329 1347 1330 1378 1302 1364 1332 1318 
1333 1349 1285 1384 1415 1271 343 1327 1315 
1540 1410 1144 376 303 49 2836 757 1789 
259 1375 1493 1432 1360 1377 1363 1392 1376 
1407 1287 1393 1406 1301 1270 1316 1356 1603 
1625 1424 1086 395 573 1061 67 513 1502 
524 1353 268 290 93 289 399 1417 1509 
1389 1447 1361 1391 1420 1379 1350 1334 1421 
1299 1601 1313 1458 1522 1366 525 1582 1736 
335 1663 349 509 620 789 1050 1785 1485 
1523 1448 1480 1390 1402 1404 1388 1451 1405 
1449 1429 1367 1380 1585 1594 1571 262 1552 
1718 70 2274 64 498 1561 28 1757 3303 
388 1508 1495 1433 1443 1494 1418 1403 1434 
1436 1481 1312 1355 1490 1337 1103 1570 1116 
1280 533 1322 402 822 329 12 1106 778 
319 1459 1460 3454 1579 1461 1274 1450 1442 
1408 1268 1422 1272 1542 1340 276 1553 1085 
1309 535 1068 264 39 1462 1466 788 798 
1804 1463 1464 1467 1468 1465 1469 1150 1273 
1311 1440 1435 1288 1256 1255 1505 1303 1300 
1526 1527 363 1060 405 593 307 585 78 
309 1470 579 1471 1472 1473 1319 1335 1284 
1254 1474 1326 1414 383 1249 1587 1352 1606 
1251 502 75 561 1641 583 549 1694 1695 
1699 1805 800 1696 1697 1700 1701 1698 1702 
1269 1385 1283 1476 1457 1624 1497 1557 305 
1604 1679 504 316 1536 606 1056 528 17 
1626 1703 1707 1823 777 1704 1705 1708 1709 
1706 1710 1428 1475 1609 1635 60 1075 286 
1660 326 1644 1279 306 1154 386 1130 1055 
1615 77 624 79 1721 1589 656 269 569 
1711 1712 810 1822 518 1713 811 1828 2840 
1631 1564 546 384 1113 394 1048 544 296 
1145 1132 1584 1040 1629 626 1530 401 1690 
1053 29 1036 809 756 299 1862 1843 2830 
1820 1042 311 1662 1039 365 374 37 1613 
340 565 315 404 46 56 1382 1617 1427 
1074 602 59 1751 353 1636 615 1595 619 
24 310 2852 819 2827 609 1841 350 1157 
1634 526 364 385 1528 1250 1444 1562 68 
1077 322 603 1072 625 595 352 1684 373 
295 2423 1655 1082 298 599 81 497 832 
2831 630 1142 1678 591 576 511 1066 1575 
1111 272 57 635 2578 47 1766 1747 2595 
1733 372 100 1638 1011 1083 1649 1025 588 
92 808 1848 1821 273 40 643 87 541 
1078 1057 360 1781 634 371 1583 1544 1548 
293 1654 294 1454 1653 1623 324 536 1037 
267 1097 538 23 300 797 821 796 2839 
616 274 1715 1716 69 1771 1685 1412 1754 
332 604 1670 563 362 1722 1724 2338 1630 
1666 1052 308 42 288 32 650 578 787 
1844 830 1819 1740 605 80 1731 1755 1659 
1686 323 1671 2503 1545 2629 3 15 1692 
543 1676 1010 18 287 1030 328 378 755 
548 639 766 618 828 2835 820 1840 1065 
1720 1500 1027 1515 1031 1278 1667 1681 387 
1034 52 1047 1032 367 277 567 318 278 
649 568 608 629 776 806 816 817 818 
1838 1845 2841 16 398 508 25 337 347 
607 368 648 338 775 358 637 628 805 
765 786 815 839 840 841 807 831 842 
1835 1836 1852 1842 1839 2850 794 795 850 
849 824 835 851 852 785 825 1849 1850 
836 826 1851 837 1853 827 838 1854 1855 
829 1856 1857 1834 1858 1859 1837 1860 1861 
1863 1864 1865 1879 1880 1866 1867 1881 1882 
1868 1869 1883 1884 1870 1871 1885 1886 1872 
1873 1887 1888 1874 1875 1889 1890 1876 1877 
1891 1892 1878 1893 1894 1895 1909 1910 1896 
1897 1911 1912 1898 1899 1913 1914 1900 1901 
1915 1916 1902 1903 1917 1918 1904 1905 1919 
1920 1906 1907 1921 1922 1908 1923 1924 1925 
1939 1940 1926 1927 1941 1942 1928 1929 1943 
1944 1930 1931 1945 1946 1932 1933 1947 1948 
1934 1935 1949 1950 1937 1952 1951 1936 1953 
1938 2114 2115 2130 2131 2116 2117 2132 2133 
2118 2119 2134 2135 2120 2121 2136 2137 2122 
2123 2138 2139 2124 2125 2140 2141 2126 2127 
2142 2143 2128 2129 2144 2145 2146 2147 2162 
2163 2148 2149 2164 2165 2150 2151 2166 2167 
2152 2153 2168 2169 2154 2155 2170 2171 2156 
2157 2172 2173 2158 2159 2174 2175 2160 2161 
2176 2177 2178 2179 2194 2195 2180 2181 2196 
2197 2182 2183 2198 2199 2184 2185 2200 2201 
2186 2187 2202 2203 2188 2189 2204 2205 2190 
2191 2206 2207 2192 2193 2208 2209 1954 1799 
74 2984 281 3348 2743 641 1829 3388 3406 
291 2053 3278 3188 2779 769 3299 94 3433 
3367 2976 2797 2765 3128 2793 2791 645 1831 
2307 3425 351 1758 631 3137 2814 3482 389 
3378 3279 1807 3474 2828 3473 2988 3472 2373 
2605 580 2809 3012 2637 2607 1812 3464 3339 
3446 2812 2009 3259 3272 3157 3455 2823 279 
2815 2651 2998 3369 2801 2816 2592 3255 3010 
1973 2010 3145 3253 3057 3312 2044 2626 3343 
3005 3043 3185 2030 2057 3042 2046 3044 3245 
2656 2086 3362 1439 2544 3269 3334 2051 2455 
2650 3130 2012 3226 3165 2259 3035 2039 2321 
2101 2108 3212 2424 2222 2272 2337 3195 2089 
2375 2221 2572 2106 2992 2223 2837 1806 258 
1980 2565 2729 3447 3125 3004 3284 2757 3282 
2497 2574 2112 2342 2096 2103 2425 2293 2490 
2405 2367 2400 2063 2277 2358 2334 2474 2529 
2241 3407 2418 35 95 1619 2985 2036 2635 
1847 3316 3133 2506 3187 2496 2357 3134 2599 
2100 2403 2073 2421 3204 2494 2456 2314 2297 
2298 2318 2328 2350 2399 2366 2387 2554 2826 
3475 3415 2502 2371 2014 3359 2323 2028 3213 
3292 2262 3244 2557 2521 3132 2302 2282 2300 
2313 2265 2296 2299 2281 2312 2317 2415 2329 
2333 3048 2834 2825 3049 3242 3050 3144 1987 
3003 3326 2038 2016 2419 2017 2308 2075 2047 
2283 2280 2235 2336 2401 2250 2295 2249 2310 
2218 2343 2311 2360 2426 2327 2345 2361 2819 
3309 3174 3209 3492 2623 2975 3345 3154 3054 
2528 3214 2555 2239 3183 2285 2352 2234 2368 
2248 2393 2458 2378 2394 2264 2377 2315 2330 
2344 2331 3427 1994 2986 3437 3158 3159 3465 
2067 2669 2829 3398 3015 2563 2763 2284 2301 
2266 2510 2236 2279 2231 2320 2395 2380 2346 
2364 2427 2316 2349 2347 2398 3030 2430 2431 
2432 2433 2434 2972 3483 3160 2625 3135 1989 
3267 2088 2351 2542 3045 2324 2233 2254 2379 
2410 2362 2397 2382 2348 2363 2435 2436 2440 
2441 2437 2438 2442 2443 2439 2444 3389 2643 
2618 3034 3246 3014 2288 2341 2591 2252 2267 
2585 2411 2412 2247 2219 2365 2422 2460 2413 
2381 2445 2446 2447 2448 2449 1846 3060 3216 
3403 3323 2559 2359 2275 2420 2479 2511 2319 
2566 2294 2396 2428 2326 2353 2461 2459 2489 
2680 2681 2686 2687 2682 2683 2688 2689 2684 
2685 2690 3456 3169 3352 2772 2020 3227 2384 
2005 2271 2060 2416 2229 2102 2292 2303 2255 
2286 2107 2404 2402 2691 2692 2696 2697 2693 
2694 2698 2699 2695 2700 3349 2824 2983 2226 
2718 1965 2113 2407 3262 2577 2526 2214 2062 
2335 2369 2069 2055 2586 2268 2253 2589 2251 
2105 1825 2701 2702 2705 2832 3484 2817 2703 
2704 3139 3476 3289 2973 2670 2099 3276 2602 
2029 3365 3233 2025 2537 3236 2408 2061 2571 
2087 2505 3002 2059 3222 3274 2064 3485 3438 
2833 3189 3466 3221 1976 2535 3205 2616 3206 
2659 2007 2762 3297 2211 3126 2004 3016 2463 
3153 3235 3202 2071 2049 2385 2245 2225 2570 
2048 2085 3178 3457 3280 3199 2649 3140 2339 
2019 2987 2673 3175 2609 3393 3176 3375 2759 
1997 3337 2582 3287 2575 2545 2244 2097 2289 
3332 2080 2556 2072 2230 2065 3224 3495 3170 
3408 2978 1981 2002 1974 2485 2486 2033 3053 
3275 3207 3217 3423 3024 3193 2766 2256 2023 
2603 3052 3006 3313 2604 2608 3172 2257 3496 
3329 3179 3502 3310 3477 3009 1990 2549 3304 
3335 2666 3382 2746 2498 3286 2466 2737 2011 
3037 3422 2013 572 3019 2993 3394 2820 3026 
3046 2543 2536 3396 3379 3493 3219 3190 1985 
1977 2468 2619 2452 2484 3196 3336 2642 2719 
2749 3366 3376 2751 3395 3356 2747 3166 1964 
3177 1995 2773 1719 2022 3355 3307 2764 3494 
2843 3428 3399 2862 3180 3281 2999 3311 2488 
2990 2655 1982 2981 2667 2630 2516 2451 2515 
3266 3354 3306 2787 2778 2716 3412 2774 2050 
3247 2771 3486 2845 3448 3419 3300 3400 3250 
3230 2356 3261 3181 1975 2639 2354 2962 2653 
2713 3302 3344 2730 2597 3392 2648 3372 2641 
2594 3373 2707 3402 2514 2499 2847 2846 3506 
3504 3467 3487 3370 3320 3409 3390 3449 3000 
3360 3301 3168 2989 3161 3021 3171 3330 2969 
3210 3191 1413 2003 2726 3131 2390 3285 1972 
2624 3051 2615 2842 2856 2844 2849 3497 3513 
3498 3478 3458 3505 3439 3468 3499 3489 3429 
3200 3410 3290 3350 3270 3421 3040 3251 3271 
3430 3240 3151 2851 2838 2853 2848 2854 2855 
3512 3503 2857 2858 3514 2859 3515 2860 3516 
3507 2861 3517 2863 3488 3508 2864 2865 3518 
3509 3522 3523 3469 3519 3510 3524 3459 3525 
2866 2867 2882 2883 2868 2869 2884 2885 2870 
2871 2886 2887 2872 2873 2888 2889 2874 2875 
2890 2891 2876 2877 2892 2893 2878 2879 2894 
2895 2880 2881 2896 2897 2898 2899 2914 2915 
2900 2901 2916 2917 2902 2903 2918 2919 2904 
2905 2920 2921 2906 2907 2922 2923 2908 2909 
2924 2925 2910 2911 2926 2927 2912 2913 2928 
2929 2930 2931 2946 2947 2932 2933 2948 2949 
2934 2935 2950 2951 2936 2937 2952 2953 2938 
2939 2954 2955 2940 2941 2956 2957 2959 2958 
2943 2942 2961 2945 2944 2960 3062 3063 3078 
3079 3064 3065 3080 3081 3066 3067 3082 3083 
3068 3069 3084 3085 3070 3071 3086 3087 3592 
3593 3598 3599 3594 3595 3600 3601 3596 3597 
3602 3603 3094 3095 3110 3111 3096 3097 3112 
3113 3098 3099 3114 3115 3100 3101 3116 3117 
3102 3103 3118 3119 3604 3605 3610 3611 3606 
3607 3612 3613 3608 3609 3614 3615 3090 3091 
3120 3121 3088 3089 3108 3109 3076 3077 3106 
3107 3074 3075 3104 3105 3072 3073 3092 3093 
3616 3617 3622 3623 3618 3619 3624 3625 3620 
3621 3626 3627 1768 1752 2807 2810 2800 539 
2731 1727 2785 3056 2742 2727 1955 2783 1668 
2662 1956 2454 1961 1962 1967 3628 3629 3634 
3635 3630 3631 3636 3637 3632 3633 3638 3639 
2560 3333 2068 3318 3417 3129 3032 3358 2995 
1979 2994 3368 3397 3377 2644 1959 1957 2710 
1968 3640 3641 3646 3647 3642 3643 3648 3649 
3644 3645 3650 3651 3059 2472 2665 3364 3260 
3418 2613 3353 2614 2638 3149 3215 3319 2811 
761 2782 1958 3249 2548 2082 3652 3653 3658 
3659 3654 3655 3660 3661 3656 3657 3662 3663 
2228 3013 2224 3436 2040 3383 2593 3028 2979 
2043 2664 2081 3338 2212 3198 3416 1811 3424 
2098 2963 3664 3665 3670 3671 3666 3667 3672 
3673 3668 3669 3674 3675 2015 2270 2480 2054 
2464 3025 3264 3296 3163 2391 1983 2243 2045 
3223 3443 3442 2822 1498 3676 3677 3682 3683 
3679 3685 3684 3678 3687 3680 3681 3686 2553 
2094 2540 2058 3182 2215 3203 2600 3237 3164 
2406 2741 2567 2636 2803 3138 1817 2767 3688 
3689 3694 3695 3690 3691 3696 3697 3692 3693 
3698 3699 2522 3283 2325 2541 2240 2091 2077 
2273 3192 2261 2309 3124 2568 3463 2997 3426 
3173 2654 2786 2813 1714 3700 3701 3706 3707 
3702 3703 3708 3709 3704 3705 3710 3711 2525 
2383 2332 2539 2246 2111 2076 2093 3315 2520 
2588 2291 3162 3295 3294 3047 3452 3218 3414 
3712 3713 3718 3719 3714 3715 3720 3721 3716 
3717 3722 3723 2414 2478 2462 2388 2508 2269 
2457 2523 2500 3186 2660 2668 3258 2671 2501 
2006 2001 2622 2736 3724 3725 3730 3731 3726 
3727 3732 3733 3728 3729 3734 3735 2473 2493 
2491 2475 2074 2092 2524 2109 2027 3023 2070 
3305 2031 3142 3022 3363 2776 3435 2732 1960 
3736 3737 3742 3743 3738 3739 3744 3745 3740 
3741 3746 3747 2509 2389 2429 2409 2217 2392 
2260 2386 2551 3033 2041 3254 3445 2583 3146 
2768 1970 3748 3749 3754 3755 3750 3751 3756 
3757 3752 3753 3758 3759 2477 2492 2476 2376 
2104 2110 2305 2340 2606 2026 2581 2213 2032 
2552 3147 3122 2996 3444 3148 3277 3017 1773 
3760 3761 3766 3767 3762 3763 3768 3769 3764 
3765 3770 3771 2278 2263 2090 2238 2216 2504 
2569 2558 2527 2465 3156 2532 3243 1998 3434 
1999 2744 2258 3772 3773 3774 3775 3777 3776 
2237 2304 2287 2507 2538 2417 3123 2370 2232 
3039 2587 2579 2640 3058 762 2000 3385 1802 
3036 1753 3778 3779 3784 3785 3780 3781 3786 
3787 3782 3783 3788 3789 3232 2220 2495 2573 
2481 3155 2561 2584 3322 2227 3027 3029 3298 
2550 3038 3234 2780 2754 2355 2708 3790 3791 
3796 3797 3792 3793 3798 3799 3794 3795 3800 
3801 3314 3324 2652 2056 2042 2633 2021 2008 
1991 3225 3208 3386 3453 2777 2530 2761 2717 
3802 3803 3808 3809 3804 3805 3810 3811 3806 
3807 3812 3813 2276 3263 2083 3194 2513 2095 
3342 3018 2601 3308 3143 3239 3007 3268 3008 
3357 1963 2740 2733 2965 3814 3815 3820 3821 
3816 3817 3822 3823 3818 3819 3824 3825 3293 
3184 3152 2079 2784 2576 3273 341 3055 2631 
3252 3256 3257 2469 1734 2450 2723 2966 2739 
2621 3826 3827 3832 3833 3828 3829 3834 3835 
3830 3831 3836 3837 2798 1993 2078 2794 2024 
2374 3167 2617 3328 3248 2804 613 2596 2792 
3327 2982 2755 2967 2970 2971 3838 3839 3844 
3845 3840 3841 3846 3847 3842 3843 3848 3849 
2620 2037 1996 3288 3347 2512 3197 3405 3127 
2775 1426 2677 2632 2533 2712 2968 2991 3011 
3850 3851 3856 3857 3852 3853 3858 3859 3854 
3855 3860 3861 3228 3136 2722 2750 2758 3432 
3404 2752 2290 2714 2084 2661 2679 2734 2709 
3031 3325 3041 3862 3863 3868 3869 3870 3865 
3864 3871 3866 3872 3867 3873 2735 2745 3346 
3413 1750 2724 2612 636 2789 2720 2756 2562 
3317 2482 2977 2964 3001 2467 3201 1969 3061 
3874 3875 3880 3881 3876 3877 3882 3883 3878 
3879 3884 3885 2453 2372 2676 3238 2711 2663 
2760 2657 2306 2647 2672 1971 3211 2210 2322 
3231 3291 2590 3331 3886 3887 3892 3893 3888 
3889 3894 3895 3890 3891 3896 3897 2646 1966 
2598 3265 1988 2519 2627 2611 1984 1978 2634 
2675 2974 2035 3141 3241 3321 3381 2518 3411 
3898 3899 3904 3905 3900 3901 3906 3907 3902 
3903 3908 3909 3391 3341 3340 3020 2052 3401 
3420 3361 3371 3220 3441 3150 3351 3461 2980 
3431 3471 3481 3910 3911 3916 3917 3912 3913 
3918 3919 3914 3915 3920 3921 3526 3479 3480 
3450 3451 3527 3520 3528 3490 3460 3529 3500 
3380 3470 3530 3511 3440 3491 3501 3521 3531 
3922 3923 3928 3929 3924 3925 3930 3931 3926 
3927 3932 3933 3532 3533 3548 3549 3534 3535 
3550 3551 3536 3537 3552 3553 3538 3539 3554 
3555 3540 3541 3556 3557 3934 3935 3940 3941 
3936 3937 3942 3943 3938 3939 3944 3945 3564 
3565 3580 3581 3566 3567 3582 3583 3568 3569 
3584 3585 3570 3571 3586 3587 3572 3573 3588 
3589 3946 3947 3952 3953 3948 3949 3954 3955 
3950 3951 3956 3957 3560 3561 3590 3591 3558 
3559 3578 3579 3546 3547 3576 3577 3544 3545 
3574 3575 3542 3543 3562 3563 3958 3959 3964 
3965 3960 3961 3966 3967 3969 3962 3968 3963 

C_[0] 1 3969 double
0 0 0 0 0 0 0 0 0 
0 0 0 0 0 0 0 0 0 
0 0 0 0 0 0 0 0 0 
0 0 0 0 0 0 0 0 0 
0 0 0 0 0 0 0 0 0 
0 0 0 0 0 0 0 0 0 
0 0 0 0 0 0 0 0 0 
0 0 0 0 0 0 0 0 0 
0 0 0 0 0 0 0 0 0 
0 0 0 0 0 0 0 0 0 
0 0 0 0 0 0 0 0 0 
0 0 0 0 0 0 0 0 0 
0.00150948 0.00293804 0.00865958 0.0177056 0.0123727 0.00567818 0.0257739 0.0345676 0.00938736 
0.0246315 0.0152222 0.0532365 0.0522275 0.0143144 0.0140903 0.0482861 0.067482 0.0949556 
0.0285246 0.0733304 0.0996041 0.0197048 0 0 0 0 0 
0 0 0 0 0 0 0 0.0206662 0.013922 
0.00443736 0.00824956 0.0345693 0.0355359 0.0372943 0.0574389 0.0601272 0.0875406 0.0914442 
0.123252 0.0867009 0.113326 0.148452 0.129259 0.155159 0.142298 0.171706 0 
0 0 0 0 0 0 0 0 0 