# vtk DataFile Version 3.0
Generated by LAMMPS
ASCII
DATASET POLYDATA
POINTS 3969 float
-0.607843 -0.607843 0 -0.588235 -0.607843 0 -0.607843 -0.588235 0 
-0.588235 -0.588235 0 -0.568627 -0.607843 0 -0.54902 -0.607843 0 
-0.568627 -0.588235 0 -0.54902 -0.588235 0 -0.529412 -0.607843 0 
-0.509804 -0.607843 0 -0.529412 -0.588235 0 -0.509804 -0.588235 0 
-0.490196 -0.607843 0 -0.470588 -0.607843 0 -0.490196 -0.588235 0 
-0.470588 -0.588235 0 -0.45098 -0.607843 0 -0.431373 -0.607843 0 
-0.45098 -0.588235 0 -0.431373 -0.588235 0 -0.411765 -0.607843 0 
-0.392157 -0.607843 0 -0.411765 -0.588235 0 -0.392157 -0.588235 0 
-0.372549 -0.607843 0 -0.352941 -0.607843 0 -0.372549 -0.588235 0 
-0.352941 -0.588235 0 -0.333333 -0.607843 0 -0.313726 -0.607843 0 
-0.333333 -0.588235 0 -0.313726 -0.588235 0 -0.607843 -0.568627 0 
-0.588235 -0.568627 0 -0.607843 -0.54902 0 -0.588235 -0.54902 0 
-0.568627 -0.568627 0 -0.54902 -0.568627 0 -0.568627 -0.54902 0 
-0.54902 -0.54902 0 -0.529412 -0.568627 0 -0.509804 -0.568627 0 
-0.529412 -0.54902 0 -0.509804 -0.54902 0 -0.490196 -0.568627 0 
-0.470588 -0.568627 0 -0.490196 -0.54902 0 -0.470588 -0.54902 0 
-0.45098 -0.568627 0 -0.431373 -0.568627 0 -0.45098 -0.54902 0 
-0.431373 -0.54902 0 -0.411765 -0.568627 0 -0.392157 -0.568627 0 
-0.411765 -0.54902 0 -0.392157 -0.54902 0 -0.372549 -0.568627 0 
-0.352941 -0.568627 0 -0.352941 -0.54902 0 -0.372549 -0.54902 0 
-0.333333 -0.568627 0 -0.313726 -0.568627 0 -0.313726 -0.54902 0 
-0.333333 -0.54902 0 -0.607843 -0.529412 0 -0.588235 -0.529412 0 
-0.607843 -0.509804 0 -0.588235 -0.509804 0 -0.568627 -0.529412 0 
-0.54902 -0.529412 0 -0.568627 -0.509804 0 -0.54902 -0.509804 0 
-0.529412 -0.529412 0 -0.509804 -0.529412 0 -0.529412 -0.509804 0 
-0.509804 -0.509804 0 -0.470588 -0.509804 0 -0.490196 -0.509804 0 
-0.470588 -0.529412 0 -0.490196 -0.529412 0 -0.431373 -0.509804 0 
-0.45098 -0.509804 0 -0.431373 -0.529412 0 -0.45098 -0.529412 0 
-0.392157 -0.509804 0 -0.411765 -0.509804 0 -0.392157 -0.529412 0 
-0.411765 -0.529412 0 -0.352941 -0.509804 0 -0.372549 -0.509804 0 
-0.352941 -0.529412 0 -0.372549 -0.529412 0 -0.313726 -0.509804 0 
-0.333333 -0.509804 0 -0.313726 -0.529412 0 -0.333333 -0.529412 0 
-0.607843 -0.490196 0 -0.588235 -0.490196 0 -0.607843 -0.470588 0 
-0.588235 -0.470588 0 -0.568627 -0.490196 0 -0.54902 -0.490196 0 
-0.568627 -0.470588 0 -0.54902 -0.470588 0 -0.529412 -0.490196 0 
-0.509804 -0.490196 0 -0.529412 -0.470588 0 -0.509804 -0.470588 0 
-0.5 -0.491844 0 -0.481017 -0.5 0 -0.48468 -0.473776 0 
-0.466556 -0.473543 0 -0.462904 -0.484583 0 -0.454364 -0.498952 0 
-0.448222 -0.468689 0 -0.432227 -0.472673 0 -0.431708 -0.5 0 
-0.425437 -0.484538 0 -0.407475 -0.494438 0 -0.405909 -0.475624 0 
-0.388124 -0.477458 0 -0.384949 -0.5 0 -0.363869 -0.497153 0 
-0.370661 -0.474812 0 -0.360999 -0.462961 0 -0.346045 -0.492485 0 
-0.325481 -0.499568 0 -0.344234 -0.473776 0 -0.329331 -0.471058 0 
-0.313598 -0.471618 0 -0.607843 -0.45098 0 -0.588235 -0.45098 0 
-0.607843 -0.431373 0 -0.588235 -0.431373 0 -0.568627 -0.45098 0 
-0.54902 -0.45098 0 -0.568627 -0.431373 0 -0.54902 -0.431373 0 
-0.529412 -0.45098 0 -0.509804 -0.45098 0 -0.529412 -0.431373 0 
-0.509804 -0.431373 0 -0.473643 -0.452633 0 -0.488772 -0.444314 0 
-0.5 -0.46314 0 -0.5 -0.428559 0 -0.47036 -0.431068 0 
-0.457321 -0.445965 0 -0.44836 -0.427277 0 -0.437386 -0.447689 0 
-0.428254 -0.434258 0 -0.41871 -0.458597 0 -0.400703 -0.454139 0 
-0.410595 -0.434498 0 -0.396282 -0.427874 0 -0.383738 -0.455682 0 
-0.378494 -0.438186 0 -0.35991 -0.442219 0 -0.343018 -0.449156 0 
-0.343408 -0.426576 0 -0.325925 -0.446885 0 -0.324563 -0.428028 0 
-0.607843 -0.411765 0 -0.588235 -0.411765 0 -0.607843 -0.392157 0 
-0.588235 -0.392157 0 -0.568627 -0.411765 0 -0.54902 -0.411765 0 
-0.568627 -0.392157 0 -0.54902 -0.392157 0 -0.529412 -0.411765 0 
-0.509804 -0.411765 0 -0.529412 -0.392157 0 -0.509804 -0.392157 0 
-0.485384 -0.416232 0 -0.496797 -0.395693 0 -0.475905 -0.390086 0 
-0.468415 -0.411043 0 -0.451185 -0.407204 0 -0.460352 -0.385028 0 
-0.434926 -0.408679 0 -0.428539 -0.384119 0 -0.419515 -0.411855 0 
-0.413049 -0.390264 0 -0.401381 -0.407371 0 -0.379065 -0.417422 0 
-0.361397 -0.420613 0 -0.388914 -0.394628 0 -0.371416 -0.398463 0 
-0.351389 -0.401088 0 -0.334997 -0.407249 0 -0.32102 -0.395672 0 
-0.607843 -0.372549 0 -0.588235 -0.372549 0 -0.607843 -0.352941 0 
-0.588235 -0.352941 0 -0.568627 -0.372549 0 -0.54902 -0.372549 0 
-0.568627 -0.352941 0 -0.54902 -0.352941 0 -0.529412 -0.372549 0 
-0.509804 -0.372549 0 -0.529412 -0.352941 0 -0.509804 -0.352941 0 
-0.485611 -0.374947 0 -0.477035 -0.346697 0 -0.498833 -0.359332 0 
-0.469913 -0.363479 0 -0.442759 -0.381611 0 -0.451949 -0.362377 0 
-0.440671 -0.349025 0 -0.426622 -0.360207 0 -0.39771 -0.376556 0 
-0.411165 -0.364351 0 -0.390779 -0.35522 0 -0.363341 -0.380794 0 
-0.378922 -0.370386 0 -0.372815 -0.348109 0 -0.358682 -0.360791 0 
-0.344021 -0.382292 0 -0.343559 -0.35481 0 -0.327254 -0.351567 0 
-0.33017 -0.374996 0 -0.607843 -0.333333 0 -0.588235 -0.333333 0 
-0.607843 -0.313726 0 -0.588235 -0.313726 0 -0.568627 -0.333333 0 
-0.54902 -0.333333 0 -0.568627 -0.313726 0 -0.54902 -0.313726 0 
-0.529412 -0.333333 0 -0.509804 -0.333333 0 -0.529412 -0.313726 0 
-0.509804 -0.313726 0 -0.480963 -0.331429 0 -0.498851 -0.326286 0 
-0.470089 -0.313961 0 -0.459971 -0.339356 0 -0.438341 -0.328782 0 
-0.454486 -0.318762 0 -0.42695 -0.314788 0 -0.406203 -0.341256 0 
-0.419586 -0.337298 0 -0.411559 -0.309294 0 -0.397477 -0.319958 0 
-0.385341 -0.332026 0 -0.37584 -0.312516 0 -0.363787 -0.329875 0 
-0.313216 -0.337277 0 -0.327165 -0.307194 0 -0.345467 -0.310019 0 
-0.331922 -0.327732 0 -0.348479 -0.333508 0 -0.607843 -0.294118 0 
-0.588235 -0.294118 0 -0.607843 -0.27451 0 -0.588235 -0.27451 0 
-0.568627 -0.294118 0 -0.54902 -0.294118 0 -0.568627 -0.27451 0 
-0.54902 -0.27451 0 -0.529412 -0.294118 0 -0.509804 -0.294118 0 
-0.529412 -0.27451 0 -0.509804 -0.27451 0 -0.495071 -0.273715 0 
-0.484335 -0.285641 0 -0.470594 -0.29771 0 -0.493336 -0.303819 0 
-0.462925 -0.271549 0 -0.436367 -0.271338 0 -0.453588 -0.286852 0 
-0.428704 -0.289823 0 -0.442474 -0.300533 0 -0.398451 -0.272712 0 
-0.414012 -0.279687 0 -0.398929 -0.296114 0 -0.371975 -0.278337 0 
-0.356015 -0.282526 0 -0.383223 -0.294119 0 -0.360799 -0.304197 0 
-0.334148 -0.268364 0 -0.339218 -0.286981 0 -0.319339 -0.286738 0 
-0.607843 -0.254902 0 -0.588235 -0.254902 0 -0.607843 -0.235294 0 
-0.588235 -0.235294 0 -0.568627 -0.254902 0 -0.54902 -0.254902 0 
-0.568627 -0.235294 0 -0.54902 -0.235294 0 -0.529412 -0.254902 0 
-0.509804 -0.254902 0 -0.529412 -0.235294 0 -0.509804 -0.235294 0 
-0.471162 -0.2582 0 -0.475805 -0.242739 0 -0.494902 -0.251723 0 
-0.448211 -0.258365 0 -0.43178 -0.245927 0 -0.456427 -0.237596 0 
-0.441368 -0.229379 0 -0.418501 -0.259362 0 -0.404986 -0.247627 0 
-0.415546 -0.232362 0 -0.383988 -0.26431 0 -0.3528 -0.26044 0 
-0.366691 -0.252778 0 -0.387011 -0.243204 0 -0.371381 -0.2318 0 
-0.350556 -0.234767 0 -0.316687 -0.264274 0 -0.337355 -0.245766 0 
-0.319804 -0.242802 0 -0.607843 -0.215686 0 -0.588235 -0.215686 0 
-0.607843 -0.196078 0 -0.588235 -0.196078 0 -0.568627 -0.215686 0 
-0.54902 -0.215686 0 -0.568627 -0.196078 0 -0.54902 -0.196078 0 
-0.529412 -0.215686 0 -0.509804 -0.215686 0 -0.529412 -0.196078 0 
-0.509804 -0.196078 0 -0.474169 -0.223837 0 -0.499033 -0.229012 0 
-0.485141 -0.211555 0 -0.491999 -0.196548 0 -0.458465 -0.213811 0 
-0.441156 -0.206226 0 -0.442371 -0.187722 0 -0.462495 -0.194866 0 
-0.424782 -0.216233 0 -0.394404 -0.224937 0 -0.405883 -0.208847 0 
-0.418223 -0.195574 0 -0.392287 -0.190813 0 -0.361842 -0.216609 0 
-0.38344 -0.210408 0 -0.372587 -0.195109 0 -0.354332 -0.193306 0 
-0.328013 -0.22331 0 -0.343667 -0.213347 0 -0.321886 -0.207705 0 
-0.339342 -0.190056 0 -0.607843 -0.176471 0 -0.588235 -0.176471 0 
-0.607843 -0.156863 0 -0.588235 -0.156863 0 -0.568627 -0.176471 0 
-0.54902 -0.176471 0 -0.568627 -0.156863 0 -0.54902 -0.156863 0 
-0.529412 -0.176471 0 -0.509804 -0.176471 0 -0.529412 -0.156863 0 
-0.509804 -0.156863 0 -0.471197 -0.182531 0 -0.468716 -0.155841 0 
-0.49244 -0.176073 0 -0.488265 -0.158249 0 -0.426894 -0.179132 0 
-0.458203 -0.171087 0 -0.436636 -0.162755 0 -0.445411 -0.150608 0 
-0.404176 -0.178577 0 -0.412675 -0.160734 0 -0.392121 -0.160504 0 
-0.378993 -0.173276 0 -0.362654 -0.172577 0 -0.352123 -0.161304 0 
-0.326992 -0.181139 0 -0.311075 -0.181935 0 -0.336586 -0.159895 0 
-0.318099 -0.158582 0 -0.607843 -0.137255 0 -0.588235 -0.137255 0 
-0.607843 -0.117647 0 -0.588235 -0.117647 0 -0.568627 -0.137255 0 
-0.54902 -0.137255 0 -0.568627 -0.117647 0 -0.54902 -0.117647 0 
-0.529412 -0.137255 0 -0.509804 -0.137255 0 -0.529412 -0.117647 0 
-0.509804 -0.117647 0 -0.466068 -0.140762 0 -0.474955 -0.126139 0 
-0.491246 -0.121279 0 -0.499268 -0.143936 0 -0.427462 -0.128397 0 
-0.445566 -0.1304 0 -0.455315 -0.115396 0 -0.421016 -0.145008 0 
-0.401099 -0.141375 0 -0.387085 -0.126342 0 -0.405416 -0.121362 0 
-0.418866 -0.110296 0 -0.378562 -0.146165 0 -0.364959 -0.142427 0 
-0.355953 -0.126863 0 -0.374079 -0.114263 0 -0.340657 -0.13995 0 
-0.321658 -0.137438 0 -0.335622 -0.119934 0 -0.312703 -0.12256 0 
-0.607843 -0.0980392 0 -0.588235 -0.0980392 0 -0.607843 -0.0784314 0 
-0.588235 -0.0784314 0 -0.568627 -0.0980392 0 -0.54902 -0.0980392 0 
-0.568627 -0.0784314 0 -0.54902 -0.0784314 0 -0.529412 -0.0980392 0 
-0.509804 -0.0980392 0 -0.529412 -0.0784314 0 -0.509804 -0.0784314 0 
-0.477838 -0.106618 0 -0.487981 -0.0944814 0 -0.463551 -0.0763968 0 
-0.496969 -0.0809519 0 -0.43945 -0.107106 0 -0.461765 -0.0944928 0 
-0.444713 -0.0884292 0 -0.423359 -0.0880904 0 -0.38746 -0.102546 0 
-0.40516 -0.096035 0 -0.420584 -0.0719447 0 -0.398604 -0.0784563 0 
-0.351255 -0.107816 0 -0.368728 -0.0941138 0 -0.379864 -0.0791564 0 
-0.356826 -0.0791083 0 -0.324195 -0.101503 0 -0.341131 -0.0933796 0 
-0.308711 -0.100533 0 -0.327526 -0.0768566 0 -0.311688 -0.0770715 0 
-0.607843 -0.0588235 0 -0.588235 -0.0588235 0 -0.607843 -0.0392157 0 
[...]
POINT_DATA 3969
FIELD FieldData 5
id 1 3969 int
161 162 167 168 163 164 169 170 165 
166 171 172 107 108 123 124 109 110 
125 126 111 112 127 128 113 114 129 
130 115 116 131 132 173 174 179 180 
175 176 181 182 177 178 183 184 139 
140 155 156 141 142 157 158 143 144 
159 160 145 146 153 154 147 148 151 
152 185 186 191 192 187 188 193 194 
189 190 195 196 119 120 149 150 117 
118 137 138 105 106 135 136 103 104 
133 134 101 102 121 122 197 198 203 
204 199 200 205 206 201 202 207 208 
1013 1015 1499 2242 1019 1021 1759 2628 1023 
2645 2470 1732 771 1411 2483 54 65 263 
2546 2799 621 642 209 210 215 216 211 
212 217 218 213 214 219 220 2788 1016 
1009 9 623 1779 531 280 1774 1832 3387 
1504 1790 1808 519 1029 334 574 27 1044 
221 222 227 228 223 224 229 230 225 
226 231 232 622 1803 292 1780 1816 1775 
1793 1809 770 759 1307 379 640 1126 1580 
1682 1277 1381 233 234 239 240 235 236 
241 242 237 238 243 244 1798 571 1529 
610 62 1665 73 1683 85 1602 562 1354 
1691 1535 1094 1298 1259 325 1581 245 246 
251 252 247 248 253 254 249 250 255 
256 1794 2487 1046 632 791 13 1276 1486 
1076 1043 88 1339 1263 1310 1117 1492 1401 
1138 1124 407 408 413 414 409 410 415 
416 411 412 417 418 1592 2790 1646 1776 
390 19 354 344 586 1252 503 1519 1131 
1387 1265 1294 1328 1386 1416 419 420 425 
426 421 422 427 428 423 424 429 430 
369 2531 614 33 1101 792 1657 1324 1151 
1109 1643 1456 1524 1290 1275 1431 1341 1317 
1348 431 432 437 438 433 434 439 440 
435 436 441 442 2769 1017 2753 96 320 
1395 570 260 1129 1153 1266 1088 1104 1372 
1139 1371 1400 1331 1343 1347 1362 443 444 
449 450 445 446 451 452 447 448 453 
454 2748 564 655 86 556 540 1576 1099 
1267 313 1305 1359 1344 1358 1329 1375 1346 
1345 455 456 461 462 457 458 463 464 
459 460 465 466 611 1778 1058 1022 1452 
43 1293 333 1597 1121 1110 1453 1482 1455 
1373 1496 1555 1374 1572 1441 467 468 473 
474 469 470 475 476 471 472 477 478 
2738 782 36 1020 1614 1745 1051 1588 1325 
1295 1501 1135 1423 355 1118 1119 1541 1321 
1478 1320 1120 479 480 485 486 481 482 
487 488 483 484 489 490 1730 654 612 
1012 554 330 1610 1640 1599 1084 1261 1147 
506 381 1090 1133 1257 1134 491 492 493 
494 495 496 400 1725 590 7 1018 1815 
781 1782 542 270 1091 301 1647 1645 1059 
1092 592 1281 1351 1152 657 658 663 664 
659 660 665 666 661 662 667 668 1763 
2471 644 1598 2806 1081 520 1651 1323 1560 
1637 314 1556 1593 1551 1149 1396 669 670 
675 676 671 672 677 678 673 674 679 
680 1143 312 1618 2674 560 63 1791 1633 
1830 1656 1438 1140 1532 523 534 1253 284 
304 1616 681 682 687 688 683 684 689 
690 685 686 691 692 34 2034 2658 2725 
2706 550 396 2721 1368 1611 1338 555 1483 
1689 1688 1521 1586 1087 1108 1506 693 694 
699 700 695 696 701 702 697 698 703 
704 1770 1487 1814 1622 2770 1761 1813 1728 
1543 1547 545 1639 1264 1063 1155 1369 1107 
1141 705 706 711 712 707 708 713 714 
709 710 715 716 1784 501 1726 1577 2802 
2517 392 1661 510 1672 1797 55 45 1792 
1795 1123 1049 275 30 717 718 723 724 
719 720 725 726 721 722 727 728 646 
2 1 1533 53 1986 331 1738 302 1735 
380 1590 530 66 1760 97 282 653 1398 
729 730 735 736 731 732 737 738 733 
734 739 740 1652 1729 1014 21 2678 1787 
2018 1786 1484 1764 1756 581 1743 633 772 
1041 1749 1062 44 521 741 742 747 748 
743 744 749 750 745 746 751 752 4 
31 41 61 5 1742 6 11 1531 1769 
1680 1767 1800 1054 1080 1762 98 48 261 
321 913 914 919 920 915 916 921 922 
917 918 923 924 257 1677 91 2610 1620 
1664 1741 1650 1723 1783 512 1518 1746 532 
391 1687 361 1744 1765 925 926 931 932 
927 928 933 934 929 930 935 936 1693 
357 596 507 2580 1383 1098 71 2564 594 
1033 1675 1503 8 1563 1038 2547 553 1514 
393 937 938 943 944 939 940 945 946 
941 942 947 948 2066 547 1026 597 647 
397 1128 317 20 1558 1607 1397 1559 1673 
22 514 10 1621 1578 949 950 955 956 
951 952 957 958 953 954 959 960 577 
753 783 793 557 527 72 348 617 327 
627 537 297 587 1028 598 377 1112 517 
961 962 967 968 963 964 969 970 965 
966 971 972 774 803 833 558 843 813 
814 844 773 784 845 754 823 804 846 
847 764 834 848 973 974 979 980 975 
976 981 982 977 978 983 984 859 860 
875 876 861 862 877 878 863 864 879 
880 865 866 881 882 867 868 883 884 
985 986 991 992 987 988 993 994 989 
990 995 996 891 892 907 908 893 894 
909 910 895 896 911 912 897 898 905 
906 899 900 903 904 997 998 1003 1004 
999 1000 1005 1006 1001 1002 1007 1008 871 
872 901 902 869 870 889 890 857 858 
887 888 855 856 885 886 873 854 853 
874 1159 1160 1174 1175 1161 1162 1176 1177 
1163 1164 1178 1179 1165 1166 1180 1181 1167 
1168 1182 1183 1169 1170 1184 1185 1171 1172 
1186 1187 1173 1188 1189 1190 1204 1205 1191 
1192 1206 1207 1193 1194 1208 1209 1195 1196 
1210 1211 1197 1198 1212 1213 1199 1200 1214 
1215 1201 1202 1216 1217 1203 1218 1219 1220 
1234 1235 1221 1222 1236 1237 1223 1224 1238 
1239 1225 1226 1240 1241 1227 1228 1242 1243 
1229 1230 1244 1245 1231 1232 1246 1247 1233 
1248 2728 370 3229 1818 1788 3374 652 1158 
1748 1064 582 3462 2781 84 780 1992 559 
1308 2818 1810 801 2795 2715 1833 2821 2808 
1777 3384 281 1799 600 779 584 83 1608 
499 382 1658 1425 271 1737 1591 375 758 
1073 1067 342 1826 651 1827 812 1513 14 
1306 339 403 82 1096 589 359 768 2796 
802 1069 1674 1148 1296 1596 89 1095 522 
1292 366 50 552 1516 1546 336 1642 1628 
767 1550 1045 1127 26 1071 1627 516 1024 
1717 2534 1824 566 790 799 1093 345 1573 
1125 283 1520 356 1567 1089 1477 406 1409 
1507 1511 1260 1156 1146 1144 1410 266 49 
376 99 265 1648 303 757 1100 1669 259 
1632 1357 1538 1102 1554 1370 285 1342 1568 
1384 1122 1415 1445 1327 343 1315 1603 1540 
395 1625 1086 1424 573 1061 1582 67 513 
1502 1353 268 524 2836 290 1105 1286 1446 
1318 1314 1349 1285 1271 1287 1301 1270 1316 
1356 1313 1601 1522 525 1571 335 1366 262 
1552 1718 1736 509 1663 70 620 93 349 
289 399 1569 1302 1332 1364 1333 1392 1407 
1406 1393 1379 1350 1421 1458 1299 1429 1367 
1380 1594 1585 1337 1280 1116 1103 1322 2274 
498 533 329 789 1050 2819 1485 1378 1330 
1360 1377 1363 1376 1420 1391 1334 1451 1404 
1405 1449 1355 1312 1570 1553 1085 1542 264 
1309 39 402 822 1068 1106 28 1785 1561 
3209 1432 1493 1389 1447 1361 1402 1390 1403 
1418 1436 1481 1490 1340 1272 1526 276 363 
405 502 535 1060 78 1641 593 1804 798 
788 12 3303 778 1417 1509 1539 1523 1448 
1388 1433 1494 1434 1268 1408 1422 1527 1303 
1300 1251 1587 561 75 583 549 606 528 
585 309 307 579 319 64 3427 388 1510 
1137 1480 1479 1508 1443 1495 1442 1256 1435 
1505 383 1249 305 1606 1056 504 1536 800 
17 1626 1459 1460 3454 1579 1461 1336 1437 
1525 1394 1419 1274 1450 1311 1288 1255 1557 
1474 1414 1352 316 1679 1055 79 624 269 
1462 1466 777 1805 1463 1464 1467 1468 1465 
1469 1304 1136 1258 1512 1289 1150 1273 1440 
1335 1326 1497 1319 1604 1615 1154 77 1721 
569 1589 1823 1690 1470 1471 1472 1473 1291 
1537 1365 1534 1282 1254 1284 1283 1624 1457 
326 386 1279 1584 656 29 518 1530 1053 
1694 1695 1699 810 1822 1696 1697 1700 1701 
1698 1702 1262 1489 1612 1565 1491 1385 1269 
1476 1075 286 1644 306 1130 1132 1040 626 
401 1036 1074 1703 1707 809 299 2840 1704 
1705 1708 1709 1706 1710 1070 1574 1297 1430 
1475 60 1609 1635 1660 544 1113 394 296 
1629 1145 602 1382 353 59 1636 756 24 
1711 1712 811 1843 1820 1713 1828 1862 2830 
1114 90 1600 575 1428 505 546 1631 1564 
384 374 1048 565 315 56 404 1617 1427 
1751 322 615 1595 373 1684 1082 619 310 
2852 819 2827 609 1841 1399 515 346 1115 
601 1662 311 365 1613 37 340 1250 46 
1444 68 1077 625 1072 603 595 295 2423 
352 1655 298 599 81 497 832 2831 630 
2805 500 760 1605 1042 350 1039 1157 1634 
526 364 385 1528 511 1562 47 635 272 
1766 2595 1747 1733 372 1011 100 1638 1025 
1649 92 588 808 1848 3502 1821 76 1796 
1079 38 1566 1678 591 576 1575 1066 1111 
634 57 2578 1583 293 294 1454 1654 1653 
1037 1623 536 1083 23 538 267 797 2839 
821 551 40 1549 1142 643 87 1078 1057 
360 1781 371 1544 1548 563 1722 324 2338 
1052 1097 300 32 308 650 2843 830 796 
1844 1715 273 58 1801 274 541 616 1716 
1771 69 1685 1412 1754 332 604 1670 2629 
362 543 1724 1666 1630 42 1030 378 18 
288 578 639 548 787 1819 2835 820 1772 
1739 605 1731 80 1740 1755 1659 1686 323 
1671 2503 1545 3 15 1032 1692 1676 1010 
287 328 629 278 755 766 618 816 828 
1840 1838 1065 1027 1517 1488 1035 1500 1720 
1515 1031 1278 1667 1681 387 1034 52 1047 
367 277 567 318 568 649 608 776 815 
806 817 807 818 1845 2841 1852 2842 398 
25 51 638 16 508 337 607 347 368 
648 775 338 358 637 628 805 765 786 
839 840 841 831 842 1836 1835 1842 1839 
2850 763 794 850 849 795 824 851 835 
852 785 1849 825 1850 836 826 1851 837 
1853 827 1854 838 1855 829 1856 1857 1834 
1858 1859 1837 1860 1861 1863 1864 1865 1879 
1880 1866 1867 1881 1882 1868 1869 1883 1884 
1870 1871 1885 1886 1872 1873 1887 1888 1874 
1875 1889 1890 1876 1877 1891 1892 1878 1893 
1894 1895 1909 1910 1896 1897 1911 1912 1898 
1899 1913 1914 1900 1901 1915 1916 1902 1903 
1917 1918 1904 1905 1919 1920 1906 1907 1921 
1922 1908 1923 1924 1925 1939 1940 1926 1927 
1941 1942 1928 1929 1943 1944 1930 1931 1945 
1946 1932 1933 1947 1948 1934 1935 1949 1950 
1936 1937 1952 1951 1938 1953 2114 2115 2130 
2131 2116 2117 2132 2133 2118 2119 2134 2135 
2120 2121 2136 2137 2122 2123 2138 2139 2124 
2125 2140 2141 2126 2127 2142 2143 2128 2129 
2144 2145 2146 2147 2162 2163 2148 2149 2164 
2165 2150 2151 2166 2167 2152 2153 2168 2169 
2154 2155 2170 2171 2156 2157 2172 2173 2158 
2159 2174 2175 2160 2161 2176 2177 2178 2179 
2194 2195 2180 2181 2196 2197 2182 2183 2198 
2199 2184 2185 2200 2201 2186 2187 2202 2203 
2188 2189 2204 2205 2190 2191 2206 2207 2192 
2193 2208 2209 1954 74 631 2984 3348 3137 
2814 1829 3482 2743 641 3406 3388 3278 389 
1807 291 2053 2779 3433 769 3188 3367 2765 
3299 94 2791 2976 645 2797 351 279 2998 
1439 3369 2651 2815 2544 2592 3378 2455 2816 
2801 3279 3255 3010 3474 1973 3473 2828 2988 
3253 3472 2373 580 2605 2809 3012 2637 3269 
2051 2837 258 3334 1806 1980 2650 2565 3447 
2729 3130 2259 3125 3284 2012 3165 2010 2757 
3004 3226 3145 2039 2497 2044 2321 3035 3312 
3057 2108 2626 3005 35 529 1619 1789 95 
3407 2418 1847 2826 2502 2635 2985 3316 2371 
2036 3133 3187 2323 2506 2496 2599 3134 3282 
2112 2357 2100 2574 2101 2342 2424 2096 3212 
2222 3475 3415 2834 3048 3359 3144 3050 3242 
2014 3326 2038 2017 2028 3213 2016 2075 3244 
2262 2308 2557 3292 2403 2521 3132 3204 2073 
2421 2425 2367 2103 2825 1987 3049 2975 3003 
2419 3054 2528 3214 2239 2047 2555 2352 3183 
2283 2401 2285 2235 2282 2280 2336 2250 2302 
2494 2300 2314 2297 2400 2456 3174 2623 3154 
3345 2829 2669 3398 3015 2563 2763 2368 2301 
2510 2088 2234 2284 2266 2393 2218 2248 2236 
2249 2310 2265 2295 2313 2298 2281 2296 3309 
2067 3492 2972 2625 1989 3246 3034 3135 3267 
3014 3216 3045 2288 2591 2341 2320 2542 2351 
2324 2458 2279 2231 2394 2426 2264 2299 2311 
2312 2360 2343 3158 3159 2986 3160 3483 3389 
3060 2643 3403 2772 2275 3352 2559 3323 2359 
2420 2254 2252 2585 2233 2427 2380 2379 2410 
2378 2377 2395 2347 2327 2361 2330 1994 3437 
3465 2618 1846 2020 3227 2271 2226 2718 2319 
2005 2384 2229 2060 2267 2479 2511 2219 2411 
2412 2346 2364 2362 2348 2349 2397 2344 2331 
2316 3030 2430 2431 2432 1757 2433 2434 3169 
1965 3456 2099 2113 2407 2416 2353 2292 2303 
2526 2247 2566 2428 2396 2363 2413 2381 2388 
2493 2398 2382 2435 2436 2440 2441 2437 2438 
2442 2443 2439 2444 2983 3289 3276 3262 2602 
2029 2102 2214 2062 2326 2255 2294 2460 2365 
2422 2461 2429 2491 2509 2389 2475 2445 2446 
2447 2448 2449 3349 2824 2973 3365 2670 3205 
2577 3233 2025 2069 2107 2286 2335 2369 2489 
2278 2476 2459 2492 2477 2376 2409 2680 2681 
2686 2687 2682 2683 2688 2689 2684 2685 2690 
3476 3139 2817 2535 2616 2007 2762 3126 2537 
2408 2211 2055 2571 2253 2404 2402 2251 2263 
2104 2090 2691 2692 2696 2697 2693 2694 2698 
2699 2695 2700 1976 3466 3221 3206 3016 2659 
3297 3393 2061 2004 3236 2463 2505 2586 2087 
3002 2589 2105 2237 2370 2216 2507 2287 2304 
2701 2702 2705 3485 2833 2832 1825 3484 2703 
2704 3438 3189 2649 3140 2673 3176 3337 3375 
3235 3153 2582 3202 2385 3274 3222 2268 2064 
3232 2481 2220 2495 2538 3457 3280 3495 3199 
3178 2339 2987 2002 2019 2609 3175 1997 2759 
3287 2244 2575 2545 2097 2071 2049 2245 2080 
2570 2048 2059 2225 3324 2573 2056 3314 2276 
3170 3408 3496 3179 2978 1981 1974 2485 3053 
2486 2033 3275 3207 3423 3217 3193 3332 2256 
2289 2556 2072 2230 2065 2085 3184 3263 2652 
3293 2083 3329 3009 3310 3477 3304 1990 2666 
3335 2746 2498 3286 3024 2737 3037 2011 2766 
2023 2603 2013 3052 3019 3006 3313 2993 3172 
2608 3224 2257 3194 2079 2798 3152 3379 3190 
3219 3493 2549 1977 1985 2619 3382 2468 2484 
2466 2719 3376 3336 3422 2747 572 3395 3394 
2820 3026 3177 3396 2543 2604 2536 3046 2024 
1993 2078 3494 3428 3281 3399 3180 2488 2999 
2452 2655 2642 2667 3196 2749 3366 2451 2751 
3356 3166 3266 1964 1995 2773 2764 3355 1719 
2037 2620 1996 3228 2862 3419 3486 3311 1982 
3300 2990 2356 2981 2639 2630 2516 2713 2515 
2354 2730 3354 2787 3306 2778 2716 3412 2774 
2050 2771 3247 2022 3307 2745 3413 3136 2722 
2845 3448 2847 3506 3400 3250 3370 3230 3261 
3181 3000 1975 2962 2653 3021 3302 3344 2597 
3392 2648 3372 2641 2594 3373 2707 3402 2514 
2735 2453 2499 3346 2846 3504 3467 3487 3320 
3409 3390 3449 3360 3301 3168 2989 3330 3161 
3171 3210 2969 3200 3191 1413 2003 2726 2390 
3131 3285 3051 1972 2624 2372 2646 2615 1966 
2856 2844 2849 3497 3513 3498 3512 3478 3458 
3505 3439 3468 3499 3489 3429 3410 3290 3350 
3270 3040 3421 3251 3430 3151 3341 3391 3271 
3240 2851 2838 2853 2848 2854 2855 3503 2857 
3514 2858 2859 3515 3516 2860 3507 2861 3517 
2863 3488 3508 2864 3518 2865 3509 3469 3522 
3523 3519 3459 3510 3524 3525 3479 2866 2867 
2882 2883 2868 2869 2884 2885 2870 2871 2886 
2887 2872 2873 2888 2889 2874 2875 2890 2891 
2876 2877 2892 2893 2878 2879 2894 2895 2880 
2881 2896 2897 2898 2899 2914 2915 2900 2901 
2916 2917 2902 2903 2918 2919 2904 2905 2920 
2921 2906 2907 2922 2923 2908 2909 2924 2925 
2910 2911 2926 2927 2912 2913 2928 2929 2930 
2931 2946 2947 2932 2933 2948 2949 2934 2935 
2950 2951 2936 2937 2952 2953 2938 2939 2954 
2955 2940 2941 2956 2957 2959 2958 2943 2942 
2944 2945 2960 2961 3062 3063 3078 3079 3064 
3065 3080 3081 3066 3067 3082 3083 3068 3069 
3084 3085 3070 3071 3086 3087 3592 3593 3598 
3599 3594 3595 3600 3601 3596 3597 3602 3603 
3094 3095 3110 3111 3096 3097 3112 3113 3098 
3099 3114 3115 3100 3101 3116 3117 3102 3103 
3118 3119 3604 3605 3610 3611 3606 3607 3612 
3613 3608 3609 3614 3615 3090 3091 3120 3121 
3088 3089 3108 3109 3076 3077 3106 3107 3074 
3075 3104 3105 3072 3073 3092 3093 3616 3617 
3622 3623 3618 3619 3624 3625 3620 3621 3626 
3627 1752 1831 1758 2793 3128 2307 3425 1768 
2731 2807 2800 1727 2742 2785 2727 1955 1668 
1956 2454 1961 1962 1967 3628 3629 3634 3635 
3630 3631 3636 3637 3632 3633 3638 3639 2812 
1812 3464 2607 3259 2810 3272 2823 2068 539 
3318 2995 3056 2783 3377 2662 2644 1959 2710 
1968 3640 3641 3646 3647 3642 3643 3648 3649 
3644 3645 3650 3651 3446 3185 3343 3339 2046 
2009 2656 3157 3032 3455 2560 3417 3368 3358 
2994 3397 1957 1958 3652 3653 3658 3659 3654 
3655 3660 3661 3656 3657 3662 3663 3043 2030 
3195 2337 2272 3042 2057 3245 2086 3333 3362 
2665 3260 1979 3129 3215 2614 2782 3319 2548 
3249 2082 3664 3665 3670 3671 3666 3667 3672 
3673 3668 3669 3674 3675 2089 2375 2490 2405 
2293 3044 2221 2106 2992 3059 3364 2472 2613 
3418 3149 2638 2811 761 3338 2098 2963 3676 
3677 3682 3683 3679 3685 3684 3678 3687 3680 
3686 3681 2334 2063 2277 2529 2223 2572 2228 
3383 3013 3436 2043 3353 2979 3028 1498 3442 
3198 3424 3688 3689 3694 3695 3690 3691 3696 
3697 3692 3693 3698 3699 2358 2318 2350 2399 
2328 2224 2241 2474 2480 2015 2040 2054 2593 
2212 2664 1811 3416 3443 2767 3700 3701 3706 
3707 3702 3703 3708 3709 3704 3705 3710 3711 
2366 2317 2415 2554 2387 2058 2540 2464 2270 
3025 3203 3264 2081 3163 1983 2243 1817 2822 
2654 3712 3713 3718 3719 3714 3715 3720 3721 
3716 3717 3722 3723 2329 2333 2541 2332 2345 
2094 2522 2553 3283 3296 2215 3182 2406 2045 
2391 2636 3223 3138 1714 3724 3725 3730 3731 
3726 3727 3732 3733 3728 3729 3734 3735 2315 
2525 2383 2462 2240 2273 2325 2600 3237 2091 
2309 2077 3164 2567 2741 3414 2803 2786 2001 
3736 3737 3742 3743 3738 3739 3744 3745 3740 
3741 3746 3747 2539 2414 2478 2473 2246 3192 
2111 2508 2261 2568 2093 3124 3463 2997 3426 
2736 2813 3452 3218 2732 3748 3749 3754 3755 
3750 3751 3756 3757 3752 3753 3758 3759 2523 
2457 2524 2092 2076 2269 2291 2520 3315 3162 
2588 3294 3173 3295 3047 2006 1960 2622 1970 
3760 3761 3766 3767 3762 3763 3768 3769 3764 
3765 3770 3771 2392 2109 2217 3186 2074 2660 
3023 2500 2671 3258 2668 2501 2031 3146 2776 
3435 2768 3277 3772 3773 3774 3775 3777 3776 
2340 2305 2386 2260 2110 3033 2041 2551 2070 
3305 2583 3363 2027 3142 3148 3254 3445 3022 
1999 2258 3444 1773 3778 3779 3784 3785 3780 
3781 3786 3787 3782 3783 3788 3789 2581 2238 
2606 2504 2026 2032 2558 2213 2552 3122 2569 
2996 3147 3017 3156 2744 1753 1802 3385 3790 
3791 3796 3797 3792 3793 3798 3799 3794 3795 
3800 3801 2232 2417 3155 2527 2465 2587 2640 
2532 1998 3243 2000 762 3434 3036 2754 2780 
2708 3802 3803 3808 3809 3804 3805 3810 3811 
3806 3807 3812 3813 3123 2561 2042 2584 2021 
3039 3322 3027 2227 2579 3058 3029 2550 3234 
3298 3038 2355 2530 2777 2717 2965 3814 3815 
3820 3821 3816 3817 3822 3823 3818 3819 3824 
3825 2513 2633 3342 2095 1991 3225 3018 2601 
2008 3453 3208 3386 3008 3268 2761 2740 2733 
2966 3826 3827 3832 3833 3828 3829 3834 3835 
3830 3831 3836 3837 2784 3273 2576 3308 3143 
3252 2631 3007 3357 3239 1734 3257 1963 2469 
2450 2723 2621 2739 2967 3838 3839 3844 3845 
3840 3841 3846 3847 3842 3843 3848 3849 341 
3167 2374 2794 3055 2617 3248 3328 3256 2792 
2804 2982 2596 613 3327 2755 2677 2970 2971 
2968 2991 3850 3851 3856 3857 3852 3853 3858 
3859 3854 3855 3860 3861 3288 2512 2750 3347 
3405 3197 3404 3127 1426 2775 2712 2632 2533 
2084 2661 3011 2709 3031 3862 3863 3868 3869 
3870 3865 3864 3871 3867 3872 3873 3866 1750 
2724 2789 2758 636 2756 3432 3317 2752 2562 
2290 2734 2714 2964 3001 2679 3201 1969 3061 
3325 3041 3874 3875 3880 3881 3876 3877 3882 
3883 3878 3879 3884 3885 2676 3238 2711 2612 
2760 2657 2306 2720 2482 2647 2210 2977 1971 
3211 2467 3231 3291 2590 3331 3886 3887 3892 
3893 3888 3889 3894 3895 3890 3891 3896 3897 
2598 3265 1988 2663 2519 2627 2611 2672 1984 
1978 2675 2322 2974 2035 3321 3381 2518 3411 
3898 3899 3904 3905 3900 3901 3906 3907 3902 
3903 3908 3909 3340 3020 3401 2052 3420 3361 
2634 3371 3220 3441 3141 3351 3241 3150 3461 
2980 3431 3471 3481 3910 3911 3916 3917 3912 
3913 3918 3919 3914 3915 3920 3921 3526 3480 
3450 3451 3527 3520 3528 3490 3460 3529 3500 
3380 3470 3530 3511 3440 3491 3501 3521 3531 
3922 3923 3928 3929 3924 3925 3930 3931 3926 
3927 3932 3933 3532 3533 3548 3549 3534 3535 
3550 3551 3536 3537 3552 3553 3538 3539 3554 
3555 3540 3541 3556 3557 3934 3935 3940 3941 
3936 3937 3942 3943 3938 3939 3944 3945 3564 
3565 3580 3581 3566 3567 3582 3583 3568 3569 
3584 3585 3570 3571 3586 3587 3572 3573 3588 
3589 3946 3947 3952 3953 3948 3949 3954 3955 
3950 3951 3956 3957 3560 3561 3590 3591 3558 
3559 3578 3579 3546 3547 3576 3577 3544 3545 
3574 3575 3542 3543 3562 3563 3958 3959 3964 
3965 3960 3961 3966 3967 3962 3968 3963 3969 

C_[0] 1 3969 double
0 0 0 0 0 0 0 0 0 
0 0 0 0 0 0 0 0 0 
0 0 0 0 0 0 0 0 0 
0 0 0 0 0 0 0 0 0 
0 0 0 0 0 0 0 0 0 
0 0 0 0 0 0 0 0 0 
0 0 0 0 0 0 0 0 0 
0 0 0 0 0 0 0 0 0 
0 0 0 0 0 0 0 0 0 
0 0 0 0 0 0 0 0 0 
0 0 0 0 0 0 0 0 0 
0 0 0 0 0 0 0 0 0 
0.00136678 0.00247959 0.00940653 0.0163447 0.0120883 0.00534952 0.0277182 0.0321234 0.00807628 
0.0228027 0.016778 0.0403787 0.0483081 0.0117227 0.017285 0.0648792 0.0900566 0.030033 
0.0169627 0.077841 0.094406 0.101911 0 0 0 0 0 
0 0 0 0 0 0 0 0.0242198 0.0146982 
0.00442295 0.00839695 0.037102 0.0398893 0.0618776 0.0554653 0.0761026 0.053708 0.07267 
0.0936562 0.11615 0.084624 0.118937 0.130365 0.132814 0.174407 0.15139 0.188613 
0 0 0 0 0 0 0 0 0 
0 0 0 0.027006 0.0162264 0.050683 0.0508207 0.0740223 0.0755509 