# vtk DataFile Version 3.0
Generated by LAMMPS
ASCII
DATASET POLYDATA
POINTS 3969 float
-0.607843 -0.607843 0 -0.588235 -0.607843 0 -0.607843 -0.588235 0 
-0.588235 -0.588235 0 -0.568627 -0.607843 0 -0.54902 -0.607843 0 
-0.568627 -0.588235 0 -0.54902 -0.588235 0 -0.529412 -0.607843 0 
-0.509804 -0.607843 0 -0.529412 -0.588235 0 -0.509804 -0.588235 0 
-0.490196 -0.607843 0 -0.470588 -0.607843 0 -0.490196 -0.588235 0 
-0.470588 -0.588235 0 -0.45098 -0.607843 0 -0.431373 -0.607843 0 
-0.45098 -0.588235 0 -0.431373 -0.588235 0 -0.411765 -0.607843 0 
-0.392157 -0.607843 0 -0.411765 -0.588235 0 -0.392157 -0.588235 0 
-0.372549 -0.607843 0 -0.352941 -0.607843 0 -0.372549 -0.588235 0 
-0.352941 -0.588235 0 -0.333333 -0.607843 0 -0.313726 -0.607843 0 
-0.333333 -0.588235 0 -0.313726 -0.588235 0 -0.607843 -0.568627 0 
-0.588235 -0.568627 0 -0.607843 -0.54902 0 -0.588235 -0.54902 0 
-0.568627 -0.568627 0 -0.54902 -0.568627 0 -0.568627 -0.54902 0 
-0.54902 -0.54902 0 -0.529412 -0.568627 0 -0.509804 -0.568627 0 
-0.529412 -0.54902 0 -0.509804 -0.54902 0 -0.490196 -0.568627 0 
-0.470588 -0.568627 0 -0.490196 -0.54902 0 -0.470588 -0.54902 0 
-0.45098 -0.568627 0 -0.431373 -0.568627 0 -0.45098 -0.54902 0 
-0.431373 -0.54902 0 -0.411765 -0.568627 0 -0.392157 -0.568627 0 
-0.411765 -0.54902 0 -0.392157 -0.54902 0 -0.372549 -0.568627 0 
-0.352941 -0.568627 0 -0.352941 -0.54902 0 -0.372549 -0.54902 0 
-0.333333 -0.568627 0 -0.313726 -0.568627 0 -0.313726 -0.54902 0 
-0.333333 -0.54902 0 -0.607843 -0.529412 0 -0.588235 -0.529412 0 
-0.607843 -0.509804 0 -0.588235 -0.509804 0 -0.568627 -0.529412 0 
-0.54902 -0.529412 0 -0.568627 -0.509804 0 -0.54902 -0.509804 0 
-0.529412 -0.529412 0 -0.509804 -0.529412 0 -0.529412 -0.509804 0 
-0.509804 -0.509804 0 -0.470588 -0.509804 0 -0.490196 -0.509804 0 
-0.470588 -0.529412 0 -0.490196 -0.529412 0 -0.431373 -0.509804 0 
-0.45098 -0.509804 0 -0.431373 -0.529412 0 -0.45098 -0.529412 0 
-0.392157 -0.509804 0 -0.411765 -0.509804 0 -0.392157 -0.529412 0 
-0.411765 -0.529412 0 -0.352941 -0.509804 0 -0.372549 -0.509804 0 
-0.352941 -0.529412 0 -0.372549 -0.529412 0 -0.313726 -0.509804 0 
-0.333333 -0.509804 0 -0.313726 -0.529412 0 -0.333333 -0.529412 0 
-0.607843 -0.490196 0 -0.588235 -0.490196 0 -0.607843 -0.470588 0 
-0.588235 -0.470588 0 -0.568627 -0.490196 0 -0.54902 -0.490196 0 
-0.568627 -0.470588 0 -0.54902 -0.470588 0 -0.529412 -0.490196 0 
-0.509804 -0.490196 0 -0.529412 -0.470588 0 -0.509804 -0.470588 0 
-0.5 -0.491837 0 -0.480827 -0.499696 0 -0.485029 -0.473424 0 
-0.466627 -0.473186 0 -0.463689 -0.484455 0 -0.454373 -0.49937 0 
-0.447311 -0.471412 0 -0.431008 -0.471399 0 -0.431257 -0.499534 0 
-0.425613 -0.484522 0 -0.408311 -0.493588 0 -0.412975 -0.465057 0 
-0.397383 -0.479608 0 -0.384948 -0.5 0 -0.360718 -0.498459 0 
-0.37791 -0.479623 0 -0.357296 -0.4738 0 -0.342273 -0.492634 0 
-0.321763 -0.498366 0 -0.343428 -0.46729 0 -0.327444 -0.476299 0 
-0.313164 -0.469622 0 -0.607843 -0.45098 0 -0.588235 -0.45098 0 
-0.607843 -0.431373 0 -0.588235 -0.431373 0 -0.568627 -0.45098 0 
-0.54902 -0.45098 0 -0.568627 -0.431373 0 -0.54902 -0.431373 0 
-0.529412 -0.45098 0 -0.509804 -0.45098 0 -0.529412 -0.431373 0 
-0.509804 -0.431373 0 -0.472362 -0.452054 0 -0.489348 -0.443871 0 
-0.5 -0.463141 0 -0.5 -0.428559 0 -0.470519 -0.431586 0 
-0.456497 -0.44886 0 -0.443255 -0.438017 0 -0.4306 -0.449367 0 
-0.393477 -0.461246 0 -0.41473 -0.441545 0 -0.395284 -0.441727 0 
-0.372711 -0.461747 0 -0.379942 -0.436126 0 -0.362714 -0.446528 0 
-0.357538 -0.430039 0 -0.341386 -0.446812 0 -0.338319 -0.426622 0 
-0.324583 -0.45033 0 -0.317948 -0.432454 0 -0.607843 -0.411765 0 
-0.588235 -0.411765 0 -0.607843 -0.392157 0 -0.588235 -0.392157 0 
-0.568627 -0.411765 0 -0.54902 -0.411765 0 -0.568627 -0.392157 0 
-0.54902 -0.392157 0 -0.529412 -0.411765 0 -0.509804 -0.411765 0 
-0.529412 -0.392157 0 -0.509804 -0.392157 0 -0.483051 -0.417358 0 
-0.496098 -0.398727 0 -0.473204 -0.397864 0 -0.440962 -0.417881 0 
-0.461562 -0.416015 0 -0.450815 -0.399768 0 -0.430954 -0.398829 0 
-0.423744 -0.423322 0 -0.405083 -0.42233 0 -0.415611 -0.399692 0 
-0.397586 -0.404349 0 -0.382524 -0.417373 0 -0.379694 -0.39125 0 
-0.368255 -0.408769 0 -0.350993 -0.409161 0 -0.340575 -0.393504 0 
-0.327257 -0.41037 0 -0.317849 -0.392992 0 -0.607843 -0.372549 0 
-0.588235 -0.372549 0 -0.607843 -0.352941 0 -0.588235 -0.352941 0 
-0.568627 -0.372549 0 -0.54902 -0.372549 0 -0.568627 -0.352941 0 
-0.54902 -0.352941 0 -0.529412 -0.372549 0 -0.509804 -0.372549 0 
-0.529412 -0.352941 0 -0.509804 -0.352941 0 -0.481667 -0.381748 0 
-0.474596 -0.359958 0 -0.49801 -0.368568 0 -0.482529 -0.347313 0 
-0.462985 -0.379746 0 -0.443969 -0.379154 0 -0.454594 -0.358741 0 
-0.431163 -0.370809 0 -0.427182 -0.351531 0 -0.396916 -0.383242 0 
-0.414389 -0.377598 0 -0.404551 -0.36033 0 -0.388685 -0.361817 0 
-0.357712 -0.384523 0 -0.372343 -0.375126 0 -0.364272 -0.351895 0 
-0.350906 -0.364912 0 -0.342104 -0.347585 0 -0.334525 -0.375547 0 
-0.325537 -0.347995 0 -0.319513 -0.36823 0 -0.607843 -0.333333 0 
-0.588235 -0.333333 0 -0.607843 -0.313726 0 -0.588235 -0.313726 0 
-0.568627 -0.333333 0 -0.54902 -0.333333 0 -0.568627 -0.313726 0 
-0.54902 -0.313726 0 -0.529412 -0.333333 0 -0.509804 -0.333333 0 
-0.529412 -0.313726 0 -0.509804 -0.313726 0 -0.498912 -0.337192 0 
-0.469443 -0.322906 0 -0.484858 -0.320033 0 -0.444077 -0.344532 0 
-0.462516 -0.338891 0 -0.434088 -0.325548 0 -0.447862 -0.317092 0 
-0.414169 -0.341125 0 -0.398033 -0.33515 0 -0.416935 -0.318891 0 
-0.402225 -0.308891 0 -0.379544 -0.345503 0 -0.384905 -0.32441 0 
-0.368462 -0.318461 0 -0.356785 -0.332116 0 -0.341248 -0.323848 0 
-0.324166 -0.325344 0 -0.607843 -0.294118 0 -0.588235 -0.294118 0 
-0.607843 -0.27451 0 -0.588235 -0.27451 0 -0.568627 -0.294118 0 
-0.54902 -0.294118 0 -0.568627 -0.27451 0 -0.54902 -0.27451 0 
-0.529412 -0.294118 0 -0.509804 -0.294118 0 -0.529412 -0.27451 0 
-0.509804 -0.27451 0 -0.473977 -0.272879 0 -0.495382 -0.290119 0 
-0.467787 -0.288724 0 -0.484859 -0.303527 0 -0.454878 -0.271828 0 
-0.442178 -0.291063 0 -0.42649 -0.280433 0 -0.457878 -0.3024 0 
-0.428152 -0.302971 0 -0.395717 -0.279248 0 -0.409227 -0.29004 0 
-0.38659 -0.301535 0 -0.378089 -0.272023 0 -0.372351 -0.291765 0 
-0.356045 -0.27784 0 -0.357447 -0.30294 0 -0.339974 -0.280951 0 
-0.319782 -0.284655 0 -0.322513 -0.303594 0 -0.340597 -0.302084 0 
-0.607843 -0.254902 0 -0.588235 -0.254902 0 -0.607843 -0.235294 0 
-0.588235 -0.235294 0 -0.568627 -0.254902 0 -0.54902 -0.254902 0 
-0.568627 -0.235294 0 -0.54902 -0.235294 0 -0.529412 -0.254902 0 
-0.509804 -0.254902 0 -0.529412 -0.235294 0 -0.509804 -0.235294 0 
-0.495692 -0.267581 0 -0.475671 -0.255056 0 -0.482424 -0.236394 0 
-0.49779 -0.242969 0 -0.438479 -0.264981 0 -0.459697 -0.248774 0 
-0.441169 -0.244628 0 -0.410207 -0.266222 0 -0.422996 -0.252279 0 
-0.403037 -0.245466 0 -0.416403 -0.23195 0 -0.38867 -0.255707 0 
-0.363469 -0.259235 0 -0.378046 -0.240028 0 -0.354843 -0.243923 0 
-0.324751 -0.264192 0 -0.340927 -0.257771 0 -0.337383 -0.235289 0 
-0.321229 -0.239123 0 -0.607843 -0.215686 0 -0.588235 -0.215686 0 
-0.607843 -0.196078 0 -0.588235 -0.196078 0 -0.568627 -0.215686 0 
-0.54902 -0.215686 0 -0.568627 -0.196078 0 -0.54902 -0.196078 0 
-0.529412 -0.215686 0 -0.509804 -0.215686 0 -0.529412 -0.196078 0 
-0.509804 -0.196078 0 -0.475851 -0.215702 0 -0.492875 -0.211473 0 
-0.444071 -0.226635 0 -0.462576 -0.22727 0 -0.428265 -0.219117 0 
-0.460309 -0.204544 0 -0.437318 -0.202402 0 -0.389139 -0.224934 0 
-0.403462 -0.216951 0 -0.412995 -0.200356 0 -0.391759 -0.196776 0 
-0.367756 -0.224689 0 -0.350772 -0.218415 0 -0.376864 -0.20508 0 
-0.36117 -0.198678 0 -0.315304 -0.223657 0 -0.33682 -0.210795 0 
-0.326184 -0.200251 0 -0.310902 -0.194729 0 -0.607843 -0.176471 0 
-0.588235 -0.176471 0 -0.607843 -0.156863 0 -0.588235 -0.156863 0 
-0.568627 -0.176471 0 -0.54902 -0.176471 0 -0.568627 -0.156863 0 
-0.54902 -0.156863 0 -0.529412 -0.176471 0 -0.509804 -0.176471 0 
-0.529412 -0.156863 0 -0.509804 -0.156863 0 -0.467219 -0.187462 0 
-0.492464 -0.192198 0 -0.470858 -0.174538 0 -0.493629 -0.17351 0 
-0.474992 -0.155972 0 -0.446895 -0.190774 0 -0.430134 -0.169448 0 
-0.445413 -0.166721 0 -0.421166 -0.185384 0 -0.402539 -0.180115 0 
-0.408103 -0.15953 0 -0.390822 -0.161161 0 -0.351961 -0.185881 0 
-0.379986 -0.17931 0 -0.367463 -0.171008 0 -0.337066 -0.179516 0 
-0.320136 -0.173875 0 -0.34426 -0.161012 0 -0.607843 -0.137255 0 
-0.588235 -0.137255 0 -0.607843 -0.117647 0 -0.588235 -0.117647 0 
-0.568627 -0.137255 0 -0.54902 -0.137255 0 -0.568627 -0.117647 0 
-0.54902 -0.117647 0 -0.529412 -0.137255 0 -0.509804 -0.137255 0 
-0.529412 -0.117647 0 -0.509804 -0.117647 0 -0.482419 -0.140284 0 
-0.5 -0.148339 0 -0.48025 -0.123667 0 -0.458903 -0.153261 0 
-0.442185 -0.146626 0 -0.462581 -0.124106 0 -0.429823 -0.126995 0 
-0.44741 -0.125597 0 -0.422047 -0.149632 0 -0.393524 -0.136824 0 
-0.410361 -0.133864 0 -0.360365 -0.152949 0 -0.37885 -0.146396 0 
-0.375508 -0.124274 0 -0.358497 -0.131847 0 -0.325301 -0.152776 0 
-0.340977 -0.140352 0 -0.318099 -0.136337 0 -0.3315 -0.119669 0 
-0.607843 -0.0980392 0 -0.588235 -0.0980392 0 -0.607843 -0.0784314 0 
-0.588235 -0.0784314 0 -0.568627 -0.0980392 0 -0.54902 -0.0980392 0 
-0.568627 -0.0784314 0 -0.54902 -0.0784314 0 -0.529412 -0.0980392 0 
-0.509804 -0.0980392 0 -0.529412 -0.0784314 0 -0.509804 -0.0784314 0 
-0.489032 -0.110231 0 -0.466473 -0.103468 0 -0.470183 -0.0896825 0 
-0.49824 -0.0940023 0 -0.42539 -0.108454 0 -0.444511 -0.10365 0 
-0.440989 -0.0881592 0 -0.455416 -0.076513 0 -0.406065 -0.114563 0 
-0.387781 -0.111072 0 -0.409715 -0.0946064 0 -0.421225 -0.0829336 0 
-0.389455 -0.0915573 0 -0.348214 -0.115281 0 -0.3659 -0.1059 0 
-0.373337 -0.0870115 0 -0.352655 -0.0909487 0 -0.316443 -0.112353 0 
-0.336235 -0.0953253 0 -0.321215 -0.089041 0 -0.607843 -0.0588235 0 
-0.588235 -0.0588235 0 -0.607843 -0.0392157 0 -0.588235 -0.0392157 0 
-0.568627 -0.0588235 0 -0.54902 -0.0588235 0 -0.568627 -0.0392157 0 
[...]
POINT_DATA 3969
FIELD FieldData 5
id 1 3969 int
161 162 167 168 163 164 169 170 165 
166 171 172 107 108 123 124 109 110 
125 126 111 112 127 128 113 114 129 
130 115 116 131 132 173 174 179 180 
175 176 181 182 177 178 183 184 139 
140 155 156 141 142 157 158 143 144 
159 160 145 146 153 154 147 148 151 
152 185 186 191 192 187 188 193 194 
189 190 195 196 119 120 149 150 117 
118 137 138 105 106 135 136 103 104 
133 134 101 102 121 122 197 198 203 
204 199 200 205 206 201 202 207 208 
1013 1015 1499 2242 1019 1021 1759 2628 1023 
2645 2470 1832 1732 1411 2483 771 54 263 
2546 65 2799 621 209 210 215 216 211 
212 217 218 213 214 219 220 2788 1016 
1009 9 623 1779 531 280 3387 1774 1504 
1808 1790 519 379 1029 640 334 574 221 
222 227 228 223 224 229 230 225 226 
231 232 622 1803 292 1816 1780 1775 62 
1793 770 1809 759 1307 85 1126 1580 1354 
1682 1298 233 234 239 240 235 236 241 
242 237 238 243 244 1798 571 1529 1794 
610 1665 632 73 791 1602 1683 1076 1486 
1691 562 1339 1535 1310 1094 1124 1259 245 
246 251 252 247 248 253 254 249 250 
255 256 2487 1646 1776 13 1046 586 354 
1276 1043 344 503 88 1519 1265 1263 1294 
1401 407 408 413 414 409 410 415 416 
411 412 417 418 2531 1592 369 2790 792 
33 1101 390 19 1151 1324 1252 1290 1643 
1524 1131 1456 1328 1386 1387 419 420 425 
426 421 422 427 428 423 424 429 430 
614 2769 2753 1017 1657 320 1395 1109 1129 
1266 1088 1153 1275 1139 1372 1317 1431 1343 
1331 431 432 437 438 433 434 439 440 
435 436 441 442 2748 96 570 260 556 
540 1576 1104 1267 313 1305 1371 1400 1359 
1344 1347 1362 1329 1375 443 444 449 450 
445 446 451 452 447 448 453 454 564 
655 611 86 1778 1099 1452 43 333 1597 
1110 1121 1358 1482 1455 1346 1345 1555 455 
456 461 462 457 458 463 464 459 460 
465 466 1058 1022 2738 1293 1614 1745 1588 
1051 1453 1325 1295 1373 1496 355 1423 1374 
1572 1441 1541 467 468 473 474 469 470 
475 476 471 472 477 478 782 36 1730 
1020 1501 554 330 1610 1135 1118 1599 1084 
1147 1321 1119 506 1133 1478 1320 1120 479 
480 485 486 481 482 487 488 483 484 
489 490 654 612 1012 400 1725 1640 1815 
270 781 1261 542 1647 381 1090 1645 592 
1257 1134 1437 1281 1304 491 492 493 494 
495 496 590 644 7 1018 1782 520 2806 
1081 1091 301 1637 1560 1059 1593 1092 1556 
1396 1152 1136 1351 657 658 663 664 659 
660 665 666 661 662 667 668 312 1763 
1143 2471 560 1598 1651 1830 1633 1323 1532 
1140 314 1551 1253 284 1365 1149 669 670 
675 676 671 672 677 678 673 674 679 
680 1618 2674 34 2034 63 1791 550 396 
1656 1438 1483 1611 523 534 1689 304 1262 
1586 1616 681 682 687 688 683 684 689 
690 685 686 691 692 2658 2725 1770 2706 
1487 2721 1368 2770 555 1338 1547 1543 1688 
1521 1087 1264 1108 1506 1369 1070 575 693 
694 699 700 695 696 701 702 697 698 
703 704 1814 1622 1784 1761 1813 1728 1639 
545 55 510 1063 1155 1107 45 1141 1123 
1114 1399 705 706 711 712 707 708 713 
714 709 710 715 716 501 1726 1577 2802 
2517 1533 392 1661 53 1672 1797 1735 1049 
1792 1795 282 275 30 717 718 723 724 
719 720 725 726 721 722 727 728 1986 
646 2 1652 1 331 1738 302 2678 380 
1590 1484 1743 530 66 97 1760 653 2805 
1398 76 729 730 735 736 731 732 737 
738 733 734 739 740 1729 1014 21 1787 
2018 1786 1764 1756 581 1769 1041 633 772 
1749 1062 44 521 741 742 747 748 743 
744 749 750 745 746 751 752 4 31 
41 61 5 1742 6 11 1531 1680 1767 
1800 1054 1080 1687 1762 261 321 98 48 
913 914 919 920 915 916 921 922 917 
918 923 924 257 1677 91 2610 1620 1664 
1741 1650 1723 1783 512 1518 1675 1746 532 
391 361 1744 1765 1801 925 926 931 932 
927 928 933 934 929 930 935 936 1693 
357 596 2066 507 2580 1383 1098 71 2564 
20 594 1033 1503 8 1563 1038 2547 553 
1514 393 937 938 943 944 939 940 945 
946 941 942 947 948 547 397 1026 597 
647 1128 557 317 1558 1607 1397 1559 1673 
22 514 10 1621 1578 1488 1035 949 950 
955 956 951 952 957 958 953 954 959 
960 577 753 783 793 527 72 348 617 
327 627 537 297 587 1028 598 377 1112 
517 961 962 967 968 963 964 969 970 
965 966 971 972 774 803 833 558 843 
813 814 844 754 773 784 845 823 804 
846 847 764 834 848 973 974 979 980 
975 976 981 982 977 978 983 984 859 
860 875 876 861 862 877 878 863 864 
879 880 865 866 881 882 867 868 883 
884 985 986 991 992 987 988 993 994 
989 990 995 996 891 892 907 908 893 
894 909 910 895 896 911 912 897 898 
905 906 899 900 903 904 997 998 1003 
1004 999 1000 1005 1006 1001 1002 1007 1008 
871 872 901 902 869 870 889 890 857 
858 887 888 855 856 885 886 874 853 
854 873 1159 1160 1174 1175 1161 1162 1176 
1177 1163 1164 1178 1179 1165 1166 1180 1181 
1167 1168 1182 1183 1169 1170 1184 1185 1171 
1172 1186 1187 1173 1188 1189 1190 1204 1205 
1191 1192 1206 1207 1193 1194 1208 1209 1195 
1196 1210 1211 1197 1198 1212 1213 1199 1200 
1214 1215 1201 1202 1216 1217 1203 1218 1219 
1220 1234 1235 1221 1222 1236 1237 1223 1224 
1238 1239 1225 1226 1240 1241 1227 1228 1242 
1243 1229 1230 1244 1245 1231 1232 1246 1247 
1233 1248 2728 370 642 3229 1788 3374 1818 
652 1748 1158 1064 582 2781 3462 84 1992 
559 780 2818 1810 1308 801 2795 2715 1833 
2821 2808 1777 3384 281 1799 600 27 1044 
779 584 83 1608 499 382 1658 271 1425 
1737 1591 375 758 1073 1067 1826 342 651 
1827 1513 14 82 339 1096 403 359 768 
2796 802 1277 1381 1069 1093 1674 1148 1125 
1296 1596 89 1095 522 1292 366 50 1516 
1546 1642 1628 812 767 1306 1127 26 516 
589 1024 2534 1824 566 790 1581 325 1117 
345 1632 1573 283 1520 356 1567 1089 1477 
406 552 1409 1507 336 1045 1260 1156 1550 
1627 1146 266 1071 1717 99 265 1648 799 
1100 1669 1138 1492 1357 1538 1446 1554 1102 
1370 285 1342 1568 1122 1445 1327 343 1315 
1511 1144 1540 395 1410 376 49 573 303 
513 1502 757 1789 259 2836 290 1341 1569 
1105 1416 1286 1318 1314 1349 1285 1384 1271 
1415 1603 1301 1316 1356 1625 1424 1086 1522 
1061 1582 335 1366 1353 67 1736 524 268 
93 349 1348 1302 1378 1332 1364 1333 1392 
1407 1287 1393 1270 1379 1601 1458 1350 1313 
525 1571 1367 1380 1594 262 1552 1718 509 
1663 620 70 289 399 789 1330 1360 1377 
1363 1376 1420 1406 1334 1421 1451 1299 1429 
1449 1355 1585 1337 1103 1280 1116 533 1322 
402 2274 498 329 28 1050 1485 1785 1432 
1493 1389 1447 1361 1391 1402 1390 1404 1405 
1403 1481 1312 1542 1490 1570 1553 1309 1085 
535 264 39 1068 822 1106 12 1804 3209 
1561 3303 778 1417 1509 1539 1523 1448 1388 
1494 1418 1436 1272 1434 1422 1340 276 1526 
363 78 405 502 1060 593 1641 585 583 
798 788 309 307 319 64 3427 388 1510 
1137 1480 1336 1479 1508 1433 1443 1495 1408 
1268 1256 1303 1300 1527 1587 383 1251 561 
75 606 528 579 549 1459 1460 1757 3454 
1579 1461 1525 1394 1419 1274 1450 1442 1311 
1288 1435 1505 1255 1414 1249 1606 504 305 
1536 800 1056 1626 17 1462 1466 1463 1464 
1467 1468 1465 1469 1258 1512 1289 1150 1273 
1440 1335 1474 1326 1557 1352 316 1679 1055 
624 79 269 777 1805 1470 1472 1471 1473 
1282 1291 1534 1537 1254 1284 1319 1283 1497 
1604 1624 1615 1154 77 386 1721 1589 569 
656 1690 1694 1695 1699 1823 810 518 1696 
1697 1700 1701 1698 1702 1489 1491 1612 1565 
1385 1269 1476 1075 1457 326 1279 286 306 
1130 1584 29 626 1530 1053 1703 1707 1822 
809 1036 1704 1705 1708 1709 1706 1710 1574 
1297 1475 1430 60 1609 1635 1660 1644 544 
1113 296 1132 1040 1629 1145 401 1074 602 
299 353 2840 1636 1711 1712 811 1843 756 
1713 1828 1862 2830 90 1428 505 1600 546 
1564 384 1631 374 394 1048 565 315 56 
1617 1382 59 1427 1751 615 1595 24 619 
310 1820 2852 819 2827 609 500 1115 601 
1042 515 346 1662 311 365 1613 37 340 
404 46 1077 1444 322 625 1072 603 373 
1684 295 2423 1082 298 599 81 497 1841 
832 2831 630 760 1605 350 1039 1157 1634 
526 364 385 1528 1250 511 1562 68 47 
635 1766 595 2595 352 1655 372 1011 1638 
1025 588 1649 808 1848 3502 1796 1079 38 
1142 1566 1678 591 576 1575 1066 1111 272 
57 2578 293 1583 1747 294 1733 1653 100 
1037 1623 1083 92 23 538 267 1821 797 
2839 821 551 40 643 1549 87 1078 1057 
360 1781 634 371 1544 1548 1654 563 1454 
324 1722 2338 536 1097 1052 300 32 308 
650 2843 796 830 1844 274 1715 273 58 
541 616 1716 1771 69 1685 1412 1754 332 
604 1670 362 543 1724 1666 1630 42 1030 
288 578 639 548 787 1819 2835 820 1772 
1739 605 1731 80 1740 1755 1659 1686 323 
1671 2503 1545 2629 3 15 1032 1692 1676 
1010 18 287 328 378 629 278 755 766 
618 816 828 1840 1838 1065 1027 1517 1500 
1720 1515 1031 1278 1667 1681 387 1034 52 
1047 367 277 567 318 568 649 608 776 
815 806 817 807 818 1845 2841 1852 398 
25 51 638 16 508 337 347 607 368 
648 338 775 358 637 628 805 765 786 
839 840 841 831 842 1836 1835 1842 1839 
2850 2842 763 794 850 849 795 824 851 
835 852 785 1849 825 1850 836 826 1851 
837 1853 827 1854 838 1855 829 1856 1857 
1834 1858 1859 1837 1860 1861 1863 1864 1865 
1879 1880 1866 1867 1881 1882 1868 1869 1883 
1884 1870 1871 1885 1886 1872 1873 1887 1888 
1874 1875 1889 1890 1876 1877 1891 1892 1878 
1893 1894 1895 1909 1910 1896 1897 1911 1912 
1898 1899 1913 1914 1900 1901 1915 1916 1902 
1903 1917 1918 1904 1905 1919 1920 1906 1907 
1921 1922 1908 1923 1924 1925 1939 1940 1926 
1927 1941 1942 1928 1929 1943 1944 1930 1931 
1945 1946 1932 1933 1947 1948 1934 1935 1949 
1950 1936 1937 1952 1951 1938 1953 2114 2115 
2130 2131 2116 2117 2132 2133 2118 2119 2134 
2135 2120 2121 2136 2137 2122 2123 2138 2139 
2124 2125 2140 2141 2126 2127 2142 2143 2128 
2129 2144 2145 2146 2147 2162 2163 2148 2149 
2164 2165 2150 2151 2166 2167 2152 2153 2168 
2169 2154 2155 2170 2171 2156 2157 2172 2173 
2158 2159 2174 2175 2160 2161 2176 2177 2178 
2179 2194 2195 2180 2181 2196 2197 2182 2183 
2198 2199 2184 2185 2200 2201 2186 2187 2202 
2203 2188 2189 2204 2205 2190 2191 2206 2207 
2192 2193 2208 2209 1954 74 631 2984 3348 
3137 1829 3482 2743 641 3406 3388 1807 3278 
291 2053 2779 769 3433 3188 3299 3367 2765 
94 2976 2791 645 2797 3128 351 2814 279 
2998 3369 2651 2815 2592 3378 2816 389 2801 
3279 3010 3255 3474 1973 2828 3473 2988 3253 
3472 2373 2605 580 3012 2809 2637 2607 1812 
3464 1439 3269 2051 2837 2544 2650 3334 1806 
2565 2455 3130 2729 2259 2012 3165 3284 2010 
3226 3145 3004 2039 2044 3035 3312 2321 3057 
2108 2626 2101 3005 3343 3043 3185 258 35 
3407 529 95 1980 3447 2418 1847 2635 2985 
3125 2036 3133 2506 3187 2757 2496 3282 2497 
2112 2574 2342 2424 2096 3212 2222 2272 2337 
1619 3475 3415 2826 2502 3359 3242 2371 3316 
2014 3326 2323 2028 2599 3213 3134 2357 3292 
2262 2403 2100 3204 2521 2073 2421 2103 2456 
2405 2425 2293 2367 2834 3048 3050 2825 3144 
3003 2419 2016 2038 2017 3214 3244 2075 2283 
2047 2308 2557 2235 2401 2282 3132 2302 2280 
2494 2300 2314 2297 2298 2318 2400 3049 1987 
2975 3174 2819 3054 2528 3345 2829 2239 3015 
2352 2555 2368 3183 2301 2250 2285 2234 2284 
2393 2336 2249 2218 2313 2310 2265 2281 2295 
2296 2328 2299 2623 3309 3154 2067 3492 2669 
3398 2972 2625 2563 2763 3135 3267 2510 2088 
3045 2236 2266 2320 2542 2248 2458 2279 2394 
2311 2426 2264 2312 2360 2343 2327 3158 3159 
2986 3160 1989 3483 3034 3389 3246 3014 3216 
3403 2288 2591 2341 2559 2351 2324 2254 2231 
2233 2427 2380 2378 2377 2395 2347 2361 2330 
1994 3437 3465 2643 2618 1846 3060 2772 3352 
2020 2275 3323 2359 2252 2585 2420 2267 2479 
2319 2379 2410 2411 2346 2364 2362 2348 2344 
2388 2331 2316 2349 3030 2430 2431 2432 2433 
2434 3227 2226 2005 2271 2384 2718 2511 2229 
2416 2060 2219 2247 2412 2566 2353 2397 2363 
2413 2493 2398 2382 2435 2436 2440 2441 2437 
2438 2442 2443 2439 2444 3169 3456 2983 1965 
2113 2407 2099 2292 2526 2102 2396 2303 2428 
2326 2381 2460 2365 2422 2491 2509 2429 2389 
2445 2446 2447 2448 2449 3349 3276 3289 2602 
2029 2973 3262 2062 2214 2577 2255 2294 2069 
2459 2461 2489 2107 2477 2278 2376 2476 2492 
2680 2681 2686 2687 2682 2683 2688 2689 2684 
2685 2690 2824 3476 3365 2670 2535 3205 3233 
2025 2335 2286 2369 2408 2055 2253 2404 2402 
2104 2090 2507 2263 2691 2692 2696 2697 2693 
2694 2698 2699 2817 2695 2700 3139 3221 2616 
2007 2762 3206 3126 2211 2537 2061 2571 3236 
2505 2586 2589 2251 2105 2237 2287 2304 3232 
1825 2701 2702 2705 2832 3485 3484 2703 2704 
3438 3466 1976 2659 2649 3140 3297 3393 3016 
3176 2463 2004 3235 3153 2582 2087 3202 2385 
3002 3274 3222 2268 2064 2573 2220 2495 2833 
3457 3280 3178 3189 2339 2019 2673 2609 3175 
3337 3375 1997 2244 2575 2545 2071 2049 2245 
2097 2570 2048 2059 2225 2652 3314 2276 3324 
3199 3495 3170 3408 2987 2002 2978 1981 2485 
3053 2486 2759 3275 3207 3423 3287 3193 3332 
2256 2289 2080 2556 2072 2230 2065 2085 3263 
3293 3184 2083 3496 3179 3329 3009 1974 3304 
1990 2033 3335 2746 2498 3217 3024 2737 3037 
3286 2766 2023 2603 3052 3006 3313 3172 2608 
3224 2257 2079 2798 3152 3310 3477 3379 3190 
3219 2549 1977 1985 2666 3382 2468 2484 2466 
2719 2011 3376 3336 3422 2013 2747 572 3019 
3394 2993 2820 3026 3396 2543 2604 2536 2620 
1993 2078 2037 3046 3493 3494 3428 3180 2488 
2619 2999 2452 2655 2642 3196 2749 3366 2451 
2751 3395 3356 3166 1964 1995 3177 2773 2764 
3307 3355 1719 3228 3399 2862 3419 3281 3311 
1982 3300 2990 2981 2667 2639 2356 2630 2516 
2713 2515 3266 2730 3354 2787 3306 2778 2716 
3412 2774 2050 2771 3247 2745 3413 2022 3136 
3486 2845 3448 2847 3400 3250 3370 3230 3261 
3181 3000 1975 2354 2962 2653 3021 3302 3344 
2597 3392 2648 3372 2641 2594 3373 2707 3402 
2735 2453 2514 2499 2846 3506 3504 3467 3487 
3320 3409 3390 3449 3360 3301 3168 2989 3330 
3161 3171 3210 2969 3191 1413 2003 2726 2390 
3131 3285 3051 1972 2624 2646 2615 1966 2856 
2844 2849 3497 3513 3498 3478 3458 3505 3439 
3468 3499 3489 3429 3200 3410 3290 3350 3270 
3421 3040 3251 3430 3151 3341 3391 3271 3240 
2851 2838 2853 2848 2854 2855 3512 3503 2857 
2858 3514 2859 3515 2860 3516 3507 2861 3517 
2863 3488 3508 2864 3518 2865 3509 3469 3522 
3523 3519 3459 3510 3524 3525 3479 2866 2867 
2882 2883 2868 2869 2884 2885 2870 2871 2886 
2887 2872 2873 2888 2889 2874 2875 2890 2891 
2876 2877 2892 2893 2878 2879 2894 2895 2880 
2881 2896 2897 2898 2899 2914 2915 2900 2901 
2916 2917 2902 2903 2918 2919 2904 2905 2920 
2921 2906 2907 2922 2923 2908 2909 2924 2925 
2910 2911 2926 2927 2912 2913 2928 2929 2930 
2931 2946 2947 2932 2933 2948 2949 2934 2935 
2950 2951 2936 2937 2952 2953 2938 2939 2954 
2955 2940 2941 2956 2957 2959 2958 2943 2942 
2961 2945 2944 2960 3062 3063 3078 3079 3064 
3065 3080 3081 3066 3067 3082 3083 3068 3069 
3084 3085 3070 3071 3086 3087 3592 3593 3598 
3599 3594 3595 3600 3601 3596 3597 3602 3603 
3094 3095 3110 3111 3096 3097 3112 3113 3098 
3099 3114 3115 3100 3101 3116 3117 3102 3103 
3118 3119 3604 3605 3610 3611 3606 3607 3612 
3613 3608 3609 3614 3615 3090 3091 3120 3121 
3088 3089 3108 3109 3076 3077 3106 3107 3074 
3075 3104 3105 3072 3073 3092 3093 3616 3617 
3622 3623 3618 3619 3624 3625 3620 3621 3626 
3627 1752 2307 1831 1758 2793 3425 1768 2810 
2807 2731 2800 1727 2785 2742 2727 1955 1668 
1956 2662 2454 1961 1962 1967 3628 3629 3634 
3635 3630 3631 3636 3637 3632 3633 3638 3639 
3259 3446 2812 3272 2823 2068 539 3318 3032 
2995 3056 2783 3368 3377 2644 1959 2710 1968 
3640 3641 3646 3647 3642 3643 3648 3649 3644 
3645 3650 3651 2046 2057 3339 2030 2009 2656 
3157 3455 2560 3333 3417 3129 3358 2994 1979 
3397 3319 1957 2782 1958 3652 3653 3658 3659 
3654 3655 3660 3661 3656 3657 3662 3663 3042 
2089 3195 3362 3245 3044 2086 3364 2665 3260 
3059 3418 3215 2614 3149 2548 761 3249 2082 
3664 3665 3670 3671 3666 3667 3672 3673 3668 
3669 3674 3675 2221 2572 2375 2063 2490 2106 
2992 2223 3013 2472 2613 3436 3353 2638 2811 
2979 3028 3338 2098 3424 2963 3676 3677 3682 
3683 3679 3685 3684 3678 3681 3680 3687 3686 
2241 2358 2334 2277 2529 2474 2015 2224 2040 
2593 2228 3383 2664 2212 2043 1498 3416 3442 
3198 3688 3689 3694 3695 3690 3691 3696 3697 
3692 3693 3698 3699 2350 2399 2387 2366 2480 
2554 2058 2054 2270 2464 3025 1811 3264 2081 
3163 1983 3443 2243 2767 2822 1817 3700 3701 
3706 3707 3702 3703 3708 3709 3704 3705 3710 
3711 2317 2415 2333 2329 2522 2540 2094 2553 
3296 3203 3182 2215 2406 2045 2391 2636 3223 
3138 2654 3712 3713 3718 3719 3714 3715 3720 
3721 3716 3717 3722 3723 2541 2332 2525 2315 
2345 3283 2240 2273 2325 2600 3237 2091 3164 
2567 2741 1714 2803 2786 3414 3724 3725 3730 
3731 3726 3727 3732 3733 3728 3729 3734 3735 
2383 2462 2414 3192 2246 2539 2111 2309 2077 
2568 2093 3124 2261 3463 2997 3426 2813 2001 
3452 2736 3736 3737 3742 3743 3738 3739 3744 
3745 3740 3741 3746 3747 2478 2523 2473 2508 
2076 2457 3315 2520 2588 2291 3173 3295 3162 
3047 3218 2006 2732 1960 3748 3749 3754 3755 
3750 3751 3756 3757 3752 3753 3758 3759 2524 
2475 2392 2092 2269 3186 2074 2109 2500 2671 
2660 3294 2668 3258 2501 2031 2622 2776 3435 
1970 2768 3760 3761 3766 3767 3762 3763 3768 
3769 3764 3765 3770 3771 2409 2217 2110 2260 
3023 3305 2386 2070 2027 3142 3363 2551 3022 
3254 3445 3146 3277 3444 1773 3772 3773 3774 
3775 3777 3776 2216 2238 2340 2305 2606 2581 
2026 3033 2552 2583 2041 3122 3017 3147 3148 
2744 1999 2258 3778 3779 3784 3785 3780 3781 
3786 3787 3782 3783 3788 3789 2370 2232 2032 
2504 2558 2465 2527 2213 2569 2996 2532 3156 
3243 2000 1753 3434 1802 3385 3790 3791 3796 
3797 3792 3793 3798 3799 3794 3795 3800 3801 
2538 2417 2481 3155 2587 3123 1998 2640 2579 
3039 3029 762 3058 3298 3036 2754 2780 2708 
3802 3803 3808 3809 3804 3805 3810 3811 3806 
3807 3812 3813 2561 2056 2042 3322 2584 3027 
2021 1991 2550 2227 2008 3038 2355 3234 3208 
2530 2777 2761 2717 2965 3814 3815 3820 3821 
3816 3817 3822 3823 3818 3819 3824 3825 2513 
2633 3342 3194 2095 3225 3018 3308 2601 3453 
3007 3357 3386 3008 3268 1963 2740 2733 2723 
2966 3826 3827 3832 3833 3828 3829 3834 3835 
3830 3831 3836 3837 2784 3273 341 2576 3143 
3055 3252 2631 3239 1734 3256 2469 3257 2450 
613 2596 2621 2739 2967 2970 3838 3839 3844 
3845 3840 3841 3846 3847 3842 3843 3848 3849 
2024 3167 3288 2374 2794 2617 3248 3328 2792 
2804 2982 3327 2755 2677 2712 2971 2968 2991 
3850 3851 3856 3857 3852 3853 3858 3859 3854 
3855 3860 3861 2512 1996 2722 2758 2750 3347 
3405 3197 3127 1426 2775 3404 2714 2632 2533 
2084 2661 3011 2709 3031 3041 3862 3863 3868 
3869 3870 3865 3864 3871 3866 3872 3873 3867 
1750 2724 2789 636 2756 3432 3317 2752 2562 
2290 2734 2964 3001 2679 3201 1969 3061 3325 
3874 3875 3880 3881 3876 3877 3882 3883 3878 
3879 3884 3885 3346 2676 3238 2711 2612 2760 
2657 2306 2720 2482 2647 2672 2210 2977 1971 
3211 2322 2467 3231 3291 2590 3331 3886 3887 
3892 3893 3888 3889 3894 3895 3890 3891 3896 
3897 2372 2598 3265 1988 2663 2519 2627 2611 
1984 1978 2675 2974 2035 3321 3381 2518 3411 
3898 3899 3904 3905 3900 3901 3906 3907 3902 
3903 3908 3909 3340 3020 3401 2052 3420 3361 
2634 3371 3220 3441 3141 3241 3150 3351 3461 
2980 3431 3471 3481 3910 3911 3916 3917 3912 
3913 3918 3919 3914 3915 3920 3921 3526 3480 
3450 3451 3527 3520 3528 3490 3460 3529 3500 
3380 3470 3530 3511 3440 3491 3501 3521 3531 
3922 3923 3928 3929 3924 3925 3930 3931 3926 
3927 3932 3933 3532 3533 3548 3549 3534 3535 
3550 3551 3536 3537 3552 3553 3538 3539 3554 
3555 3540 3541 3556 3557 3934 3935 3940 3941 
3936 3937 3942 3943 3938 3939 3944 3945 3564 
3565 3580 3581 3566 3567 3582 3583 3568 3569 
3584 3585 3570 3571 3586 3587 3572 3573 3588 
3589 3946 3947 3952 3953 3948 3949 3954 3955 
3950 3951 3956 3957 3560 3561 3590 3591 3558 
3559 3578 3579 3546 3547 3576 3577 3544 3545 
3574 3575 3542 3543 3562 3563 3958 3959 3964 
3965 3960 3961 3966 3967 3963 3969 3962 3968 

C_[0] 1 3969 double
0 0 0 0 0 0 0 0 0 
0 0 0 0 0 0 0 0 0 
0 0 0 0 0 0 0 0 0 
0 0 0 0 0 0 0 0 0 
0 0 0 0 0 0 0 0 0 
0 0 0 0 0 0 0 0 0 
0 0 0 0 0 0 0 0 0 
0 0 0 0 0 0 0 0 0 
0 0 0 0 0 0 0 0 0 
0 0 0 0 0 0 0 0 0 
0 0 0 0 0 0 0 0 0 
0 0 0 0 0 0 0 0 0 
0.00138115 0.00264461 0.00923771 0.0166491 0.0120663 0.00518646 0.0256158 0.0332165 0.00837983 
0.0224927 0.0169843 0.0496613 0.0394146 0.0128433 0.0161392 0.0506932 0.072132 0.0299568 
0.0212766 0.0914645 0.0801295 0.104269 0 0 0 0 0 
0 0 0 0 0 0 0 0.0254269 0.0142263 
0.00426964 0.00834266 0.0367939 0.0381348 0.0582383 0.0591148 0.0680217 0.0808898 0.0988788 
0.0827103 0.121391 0.120104 0.152779 0.139649 0.179983 0.144796 0.185774 0 
0 0 0 0 0 0 0 0 0 