# vtk DataFile Version 3.0
Generated by LAMMPS
ASCII
DATASET POLYDATA
POINTS 3969 float
-0.607843 -0.607843 0 -0.588235 -0.607843 0 -0.607843 -0.588235 0 
-0.588235 -0.588235 0 -0.568627 -0.607843 0 -0.54902 -0.607843 0 
-0.568627 -0.588235 0 -0.54902 -0.588235 0 -0.529412 -0.607843 0 
-0.509804 -0.607843 0 -0.529412 -0.588235 0 -0.509804 -0.588235 0 
-0.490196 -0.607843 0 -0.470588 -0.607843 0 -0.490196 -0.588235 0 
-0.470588 -0.588235 0 -0.45098 -0.607843 0 -0.431373 -0.607843 0 
-0.45098 -0.588235 0 -0.431373 -0.588235 0 -0.411765 -0.607843 0 
-0.392157 -0.607843 0 -0.411765 -0.588235 0 -0.392157 -0.588235 0 
-0.372549 -0.607843 0 -0.352941 -0.607843 0 -0.372549 -0.588235 0 
-0.352941 -0.588235 0 -0.333333 -0.607843 0 -0.313726 -0.607843 0 
-0.333333 -0.588235 0 -0.313726 -0.588235 0 -0.607843 -0.568627 0 
-0.588235 -0.568627 0 -0.607843 -0.54902 0 -0.588235 -0.54902 0 
-0.568627 -0.568627 0 -0.54902 -0.568627 0 -0.568627 -0.54902 0 
-0.54902 -0.54902 0 -0.529412 -0.568627 0 -0.509804 -0.568627 0 
-0.529412 -0.54902 0 -0.509804 -0.54902 0 -0.490196 -0.568627 0 
-0.470588 -0.568627 0 -0.490196 -0.54902 0 -0.470588 -0.54902 0 
-0.45098 -0.568627 0 -0.431373 -0.568627 0 -0.45098 -0.54902 0 
-0.431373 -0.54902 0 -0.411765 -0.568627 0 -0.392157 -0.568627 0 
-0.411765 -0.54902 0 -0.392157 -0.54902 0 -0.372549 -0.568627 0 
-0.352941 -0.568627 0 -0.352941 -0.54902 0 -0.372549 -0.54902 0 
-0.333333 -0.568627 0 -0.313726 -0.568627 0 -0.313726 -0.54902 0 
-0.333333 -0.54902 0 -0.607843 -0.529412 0 -0.588235 -0.529412 0 
-0.607843 -0.509804 0 -0.588235 -0.509804 0 -0.568627 -0.529412 0 
-0.54902 -0.529412 0 -0.568627 -0.509804 0 -0.54902 -0.509804 0 
-0.529412 -0.529412 0 -0.509804 -0.529412 0 -0.529412 -0.509804 0 
-0.509804 -0.509804 0 -0.470588 -0.509804 0 -0.490196 -0.509804 0 
-0.470588 -0.529412 0 -0.490196 -0.529412 0 -0.431373 -0.509804 0 
-0.45098 -0.509804 0 -0.431373 -0.529412 0 -0.45098 -0.529412 0 
-0.392157 -0.509804 0 -0.411765 -0.509804 0 -0.392157 -0.529412 0 
-0.411765 -0.529412 0 -0.352941 -0.509804 0 -0.372549 -0.509804 0 
-0.352941 -0.529412 0 -0.372549 -0.529412 0 -0.313726 -0.509804 0 
-0.333333 -0.509804 0 -0.313726 -0.529412 0 -0.333333 -0.529412 0 
-0.607843 -0.490196 0 -0.588235 -0.490196 0 -0.607843 -0.470588 0 
-0.588235 -0.470588 0 -0.568627 -0.490196 0 -0.54902 -0.490196 0 
-0.568627 -0.470588 0 -0.54902 -0.470588 0 -0.529412 -0.490196 0 
-0.509804 -0.490196 0 -0.529412 -0.470588 0 -0.509804 -0.470588 0 
-0.5 -0.491834 0 -0.479164 -0.5 0 -0.484496 -0.476473 0 
-0.462256 -0.475343 0 -0.461642 -0.485768 0 -0.449148 -0.5 0 
-0.441306 -0.476992 0 -0.423998 -0.5 0 -0.413363 -0.486214 0 
-0.422613 -0.476554 0 -0.396945 -0.496495 0 -0.397578 -0.471711 0 
-0.373789 -0.498713 0 -0.381546 -0.475567 0 -0.348625 -0.497579 0 
-0.362564 -0.483291 0 -0.327096 -0.49581 0 -0.347029 -0.472203 0 
-0.330685 -0.471402 0 -0.314981 -0.475545 0 -0.607843 -0.45098 0 
-0.588235 -0.45098 0 -0.607843 -0.431373 0 -0.588235 -0.431373 0 
-0.568627 -0.45098 0 -0.54902 -0.45098 0 -0.568627 -0.431373 0 
-0.54902 -0.431373 0 -0.529412 -0.45098 0 -0.509804 -0.45098 0 
-0.529412 -0.431373 0 -0.509804 -0.431373 0 -0.476647 -0.458088 0 
-0.489733 -0.443228 0 -0.5 -0.463141 0 -0.5 -0.428561 0 
-0.468304 -0.430449 0 -0.445367 -0.45751 0 -0.4627 -0.44971 0 
-0.449418 -0.43288 0 -0.428879 -0.45334 0 -0.430254 -0.432854 0 
-0.411453 -0.457839 0 -0.41385 -0.430921 0 -0.398382 -0.443902 0 
-0.36739 -0.462264 0 -0.38288 -0.451325 0 -0.381542 -0.429031 0 
-0.365211 -0.437582 0 -0.349794 -0.451696 0 -0.339483 -0.438833 0 
-0.324624 -0.451829 0 -0.320919 -0.426603 0 -0.607843 -0.411765 0 
-0.588235 -0.411765 0 -0.607843 -0.392157 0 -0.588235 -0.392157 0 
-0.568627 -0.411765 0 -0.54902 -0.411765 0 -0.568627 -0.392157 0 
-0.54902 -0.392157 0 -0.529412 -0.411765 0 -0.509804 -0.411765 0 
-0.529412 -0.392157 0 -0.509804 -0.392157 0 -0.482311 -0.41832 0 
-0.481165 -0.401163 0 -0.497266 -0.396713 0 -0.470702 -0.386331 0 
-0.445003 -0.41268 0 -0.461167 -0.409717 0 -0.452511 -0.386804 0 
-0.437103 -0.389574 0 -0.42665 -0.41049 0 -0.398392 -0.419559 0 
-0.412012 -0.404227 0 -0.391549 -0.400282 0 -0.355615 -0.421777 0 
-0.38141 -0.3856 0 -0.374414 -0.410146 0 -0.361297 -0.398925 0 
-0.339122 -0.417155 0 -0.342596 -0.39708 0 -0.326639 -0.396094 0 
-0.312763 -0.412812 0 -0.607843 -0.372549 0 -0.588235 -0.372549 0 
-0.607843 -0.352941 0 -0.588235 -0.352941 0 -0.568627 -0.372549 0 
-0.54902 -0.372549 0 -0.568627 -0.352941 0 -0.54902 -0.352941 0 
-0.529412 -0.372549 0 -0.509804 -0.372549 0 -0.529412 -0.352941 0 
-0.509804 -0.352941 0 -0.48228 -0.37409 0 -0.477406 -0.351745 0 
-0.495925 -0.36406 0 -0.446991 -0.367183 0 -0.46195 -0.360565 0 
-0.441298 -0.344991 0 -0.429478 -0.360701 0 -0.421244 -0.383204 0 
-0.40476 -0.381526 0 -0.41346 -0.359808 0 -0.401657 -0.346684 0 
-0.391902 -0.367604 0 -0.381603 -0.348515 0 -0.37179 -0.368327 0 
-0.357996 -0.379299 0 -0.353057 -0.355792 0 -0.340412 -0.371648 0 
-0.330578 -0.350488 0 -0.324259 -0.371635 0 -0.312114 -0.34965 0 
-0.607843 -0.333333 0 -0.588235 -0.333333 0 -0.607843 -0.313726 0 
-0.588235 -0.313726 0 -0.568627 -0.333333 0 -0.54902 -0.333333 0 
-0.568627 -0.313726 0 -0.54902 -0.313726 0 -0.529412 -0.333333 0 
-0.509804 -0.333333 0 -0.529412 -0.313726 0 -0.509804 -0.313726 0 
-0.478846 -0.334326 0 -0.497001 -0.333997 0 -0.47883 -0.311466 0 
-0.458874 -0.338812 0 -0.446203 -0.321357 0 -0.463504 -0.315884 0 
-0.43164 -0.312328 0 -0.426291 -0.333857 0 -0.411822 -0.330279 0 
-0.398642 -0.313589 0 -0.365086 -0.341405 0 -0.386603 -0.330163 0 
-0.375804 -0.315187 0 -0.359539 -0.320681 0 -0.317444 -0.310988 0 
-0.322969 -0.329058 0 -0.339459 -0.317221 0 -0.344542 -0.337904 0 
-0.607843 -0.294118 0 -0.588235 -0.294118 0 -0.607843 -0.27451 0 
-0.588235 -0.27451 0 -0.568627 -0.294118 0 -0.54902 -0.294118 0 
-0.568627 -0.27451 0 -0.54902 -0.27451 0 -0.529412 -0.294118 0 
-0.509804 -0.294118 0 -0.529412 -0.27451 0 -0.509804 -0.27451 0 
-0.480154 -0.273952 0 -0.465861 -0.27511 0 -0.482042 -0.294745 0 
-0.499085 -0.303038 0 -0.43612 -0.278013 0 -0.459084 -0.292624 0 
-0.444455 -0.29625 0 -0.409651 -0.273608 0 -0.396736 -0.282259 0 
-0.421693 -0.29068 0 -0.412566 -0.30527 0 -0.372022 -0.287641 0 
-0.354304 -0.280095 0 -0.386316 -0.296891 0 -0.356463 -0.300536 0 
-0.341231 -0.26904 0 -0.327077 -0.28424 0 -0.337405 -0.298604 0 
-0.312094 -0.273803 0 -0.607843 -0.254902 0 -0.588235 -0.254902 0 
-0.607843 -0.235294 0 -0.588235 -0.235294 0 -0.568627 -0.254902 0 
-0.54902 -0.254902 0 -0.568627 -0.235294 0 -0.54902 -0.235294 0 
-0.529412 -0.254902 0 -0.509804 -0.254902 0 -0.529412 -0.235294 0 
-0.509804 -0.235294 0 -0.494251 -0.26667 0 -0.473449 -0.242253 0 
-0.495043 -0.243294 0 -0.447683 -0.263859 0 -0.440621 -0.247107 0 
-0.462113 -0.250143 0 -0.451299 -0.227805 0 -0.423624 -0.261765 0 
-0.409388 -0.248774 0 -0.393262 -0.251812 0 -0.424953 -0.236834 0 
-0.38228 -0.266843 0 -0.36761 -0.262002 0 -0.380293 -0.237916 0 
-0.36459 -0.237741 0 -0.35167 -0.25156 0 -0.326408 -0.256996 0 
-0.335137 -0.239605 0 -0.607843 -0.215686 0 -0.588235 -0.215686 0 
-0.607843 -0.196078 0 -0.588235 -0.196078 0 -0.568627 -0.215686 0 
-0.54902 -0.215686 0 -0.568627 -0.196078 0 -0.54902 -0.196078 0 
-0.529412 -0.215686 0 -0.509804 -0.215686 0 -0.529412 -0.196078 0 
-0.509804 -0.196078 0 -0.471462 -0.225557 0 -0.490864 -0.221583 0 
-0.472174 -0.202586 0 -0.496391 -0.204374 0 -0.43664 -0.219944 0 
-0.45534 -0.20654 0 -0.441629 -0.194767 0 -0.411915 -0.222386 0 
-0.396713 -0.226841 0 -0.42372 -0.204565 0 -0.410059 -0.196612 0 
-0.393246 -0.203321 0 -0.380293 -0.213046 0 -0.364026 -0.214021 0 
-0.367212 -0.189907 0 -0.350836 -0.199984 0 -0.320556 -0.228067 0 
-0.347308 -0.225179 0 -0.333865 -0.211658 0 -0.317797 -0.20706 0 
-0.607843 -0.176471 0 -0.588235 -0.176471 0 -0.607843 -0.156863 0 
-0.588235 -0.156863 0 -0.568627 -0.176471 0 -0.54902 -0.176471 0 
-0.568627 -0.156863 0 -0.54902 -0.156863 0 -0.529412 -0.176471 0 
-0.509804 -0.176471 0 -0.529412 -0.156863 0 -0.509804 -0.156863 0 
-0.467696 -0.185465 0 -0.48843 -0.187513 0 -0.468867 -0.164057 0 
-0.483988 -0.16768 0 -0.497464 -0.155321 0 -0.42813 -0.179739 0 
-0.448321 -0.176982 0 -0.4343 -0.159937 0 -0.45399 -0.156448 0 
-0.398052 -0.179903 0 -0.41354 -0.168959 0 -0.40461 -0.15384 0 
-0.385942 -0.159738 0 -0.381119 -0.182144 0 -0.358275 -0.171413 0 
-0.371216 -0.156469 0 -0.349326 -0.154572 0 -0.342502 -0.182898 0 
-0.327125 -0.185112 0 -0.311481 -0.182439 0 -0.333313 -0.159165 0 
-0.316339 -0.160408 0 -0.607843 -0.137255 0 -0.588235 -0.137255 0 
-0.607843 -0.117647 0 -0.588235 -0.117647 0 -0.568627 -0.137255 0 
-0.54902 -0.137255 0 -0.568627 -0.117647 0 -0.54902 -0.117647 0 
-0.529412 -0.137255 0 -0.509804 -0.137255 0 -0.529412 -0.117647 0 
-0.509804 -0.117647 0 -0.4705 -0.129835 0 -0.487916 -0.136612 0 
-0.492668 -0.121126 0 -0.42529 -0.145173 0 -0.460148 -0.138424 0 
-0.441357 -0.13347 0 -0.426184 -0.122646 0 -0.444689 -0.113039 0 
-0.408657 -0.13192 0 -0.391218 -0.137542 0 -0.394363 -0.116225 0 
-0.360893 -0.137111 0 -0.375148 -0.128473 0 -0.346931 -0.126875 0 
-0.330265 -0.138721 0 -0.309674 -0.143228 0 -0.320487 -0.12357 0 
-0.607843 -0.0980392 0 -0.588235 -0.0980392 0 -0.607843 -0.0784314 0 
-0.588235 -0.0784314 0 -0.568627 -0.0980392 0 -0.54902 -0.0980392 0 
-0.568627 -0.0784314 0 -0.54902 -0.0784314 0 -0.529412 -0.0980392 0 
-0.509804 -0.0980392 0 -0.529412 -0.0784314 0 -0.509804 -0.0784314 0 
-0.476637 -0.100196 0 -0.492779 -0.101785 0 -0.47257 -0.0796971 0 
-0.461423 -0.110339 0 -0.431585 -0.0983084 0 -0.455815 -0.0916672 0 
-0.43645 -0.0810781 0 -0.412903 -0.106893 0 -0.399413 -0.0960576 0 
-0.417083 -0.0829816 0 -0.387338 -0.08255 0 -0.376701 -0.107043 0 
-0.36097 -0.108395 0 -0.370119 -0.0852219 0 -0.351824 -0.0912428 0 
-0.338138 -0.11172 0 -0.321904 -0.10376 0 -0.337931 -0.0845172 0 
-0.309345 -0.0952309 0 -0.607843 -0.0588235 0 -0.588235 -0.0588235 0 
-0.607843 -0.0392157 0 -0.588235 -0.0392157 0 -0.568627 -0.0588235 0 
[...]
POINT_DATA 3969
FIELD FieldData 5
id 1 3969 int
161 162 167 168 163 164 169 170 165 
166 171 172 107 108 123 124 109 110 
125 126 111 112 127 128 113 114 129 
130 115 116 131 132 173 174 179 180 
175 176 181 182 177 178 183 184 139 
140 155 156 141 142 157 158 143 144 
159 160 145 146 153 154 147 148 151 
152 185 186 191 192 187 188 193 194 
189 190 195 196 119 120 149 150 117 
118 137 138 105 106 135 136 103 104 
133 134 101 102 121 122 197 198 203 
204 199 200 205 206 201 202 207 208 
1013 1015 1499 2242 1019 1021 1759 1023 2645 
2628 2470 280 1411 1832 2483 1732 263 3387 
1504 771 209 210 215 216 211 212 217 
218 213 214 219 220 2788 1016 1009 9 
622 1779 623 1798 1780 292 531 610 1775 
1774 1816 1665 62 1793 1809 770 1683 221 
222 227 228 223 224 229 230 225 226 
231 232 1803 1529 2487 1776 571 1794 369 
1646 1046 632 390 354 73 33 13 586 
791 19 344 1276 233 234 239 240 235 
236 241 242 237 238 243 244 2790 2753 
1592 2531 2769 260 320 792 1657 570 1576 
1395 556 1129 1101 1088 1109 1266 1324 1153 
245 246 251 252 247 248 253 254 249 
250 255 256 2748 614 96 540 43 564 
1614 1099 1452 1453 313 333 1110 1597 1359 
1104 1305 1267 407 408 413 414 409 410 
415 416 411 412 417 418 1778 1745 611 
1017 554 1293 1051 1599 1135 1501 1588 1325 
1496 1295 1121 1373 1455 1482 1358 419 420 
425 426 421 422 427 428 423 424 429 
430 655 1058 86 330 1640 36 1610 1084 
1261 1147 542 1118 355 506 1119 1423 1555 
1572 431 432 437 438 433 434 439 440 
435 436 441 442 1730 2738 612 1022 270 
1815 301 1647 1090 1091 1059 1645 381 1133 
1257 1320 1374 1321 1541 1441 443 444 449 
450 445 446 451 452 447 448 453 454 
781 782 1782 654 1020 1637 520 1560 2806 
1092 1593 1556 1152 592 1134 1281 1437 1120 
1478 1539 1137 1510 455 456 461 462 457 
458 463 464 459 460 465 466 590 400 
1012 1323 1081 1651 1633 1830 314 1396 1551 
1304 1351 1525 1336 1480 1479 467 468 473 
474 469 470 475 476 471 472 477 478 
644 1725 1143 1598 1656 560 1438 1532 1140 
523 1253 1149 1136 1365 1258 1394 1419 1512 
1495 479 480 485 486 481 482 487 488 
483 484 489 490 2471 7 1618 1018 1791 
63 1611 396 534 555 1483 304 1689 1586 
284 1537 1262 1291 1274 1289 1450 1534 1273 
491 492 493 494 495 496 1763 312 2674 
550 1338 34 1543 1521 1688 1108 1087 1616 
1489 1506 1254 1282 1150 657 658 663 664 
659 660 665 666 661 662 667 668 2034 
2658 1761 1547 2770 1368 2721 1639 1063 1264 
1369 1070 1565 1574 1612 1269 1284 1491 669 
670 675 676 671 672 677 678 673 674 
679 680 1770 2725 2706 545 1813 510 1728 
1155 1107 55 45 1141 1123 575 1114 1297 
1430 1385 1475 681 682 687 688 683 684 
689 690 685 686 691 692 1814 1487 501 
1622 2802 1672 2517 1797 1661 1049 1792 1795 
1399 275 1600 30 515 90 1428 505 693 
694 699 700 695 696 701 702 697 698 
703 704 1784 392 1533 1726 53 380 331 
1735 530 66 282 97 346 653 500 1115 
601 705 706 711 712 707 708 713 714 
709 710 715 716 1986 646 1577 2 302 
1738 1484 1787 1590 1764 1760 1743 633 2805 
1041 1398 76 760 1042 1605 1039 717 718 
723 724 719 720 725 726 721 722 727 
728 2678 1652 1729 1 1756 2018 1769 1786 
772 581 1062 1749 1800 44 521 350 1796 
1566 1079 729 730 735 736 731 732 737 
738 733 734 739 740 1014 5 4 11 
21 31 1742 6 1767 1054 1680 1080 261 
1762 321 48 1678 38 1549 1142 40 741 
742 747 748 743 744 749 750 745 746 
751 752 41 61 91 1531 1741 512 1664 
2610 1687 1518 1783 532 98 391 361 1744 
1801 551 273 913 914 919 920 915 916 
921 922 917 918 923 924 357 257 1693 
1677 1383 2580 1620 1650 2564 1503 1675 1723 
2547 1746 553 1765 1772 1715 58 925 926 
931 932 927 928 933 934 929 930 935 
936 596 2066 507 397 547 1098 71 1128 
20 594 8 1033 1673 1038 1563 1514 1731 
393 1517 1739 937 938 943 944 939 940 
945 946 941 942 947 948 1026 597 647 
1607 557 317 1558 1397 327 1559 22 1621 
514 10 1578 1488 1035 1027 1065 949 950 
955 956 951 952 957 958 953 954 959 
960 577 753 783 793 527 72 617 558 
348 627 537 297 587 1028 598 377 1112 
517 51 961 962 967 968 963 964 969 
970 965 966 971 972 774 803 833 843 
813 773 814 844 754 784 823 845 804 
846 764 847 638 834 763 848 973 974 
979 980 975 976 981 982 977 978 983 
984 859 860 875 876 861 862 877 878 
863 864 879 880 865 866 881 882 867 
868 883 884 985 986 991 992 987 988 
993 994 989 990 995 996 891 892 907 
908 893 894 909 910 895 896 911 912 
897 898 905 906 899 900 903 904 997 
998 1003 1004 999 1000 1005 1006 1001 1002 
1007 1008 871 872 901 902 869 870 889 
890 857 858 887 888 855 856 885 886 
874 873 854 853 1159 1160 1174 1175 1161 
1162 1176 1177 1163 1164 1178 1179 1165 1166 
1180 1181 1167 1168 1182 1183 1169 1170 1184 
1185 1171 1172 1186 1187 1173 1188 1189 1190 
1204 1205 1191 1192 1206 1207 1193 1194 1208 
1209 1195 1196 1210 1211 1197 1198 1212 1213 
1199 1200 1214 1215 1201 1202 1216 1217 1203 
1218 1219 1220 1234 1235 1221 1222 1236 1237 
1223 1224 1238 1239 1225 1226 1240 1241 1227 
1228 1242 1243 1229 1230 1244 1245 1231 1232 
1246 1247 1233 1248 2546 2728 1808 54 370 
65 1788 2799 3374 621 642 1748 3229 582 
1818 2781 652 1992 1158 1064 2818 3462 2715 
1810 559 2795 1833 1777 3384 2821 759 1790 
1602 1307 519 85 1126 379 1580 1029 640 
334 1682 27 574 1044 779 83 584 499 
271 1591 84 1658 758 1308 780 801 1826 
600 2808 359 82 503 1043 1076 1519 1486 
88 562 1339 1691 1535 1354 1094 1298 1277 
1381 1581 1069 1674 1608 382 1737 1425 1596 
1827 1067 651 1073 768 14 1096 339 1151 
1290 1252 1643 1265 1131 1263 1294 1310 1124 
1259 325 345 1093 1148 1125 89 1296 375 
1292 1095 50 342 1546 1306 1513 589 802 
1139 1371 1275 1372 1524 1456 1387 1386 1401 
1492 1328 1138 1117 1357 1632 1102 1573 1520 
283 522 366 1089 1516 812 1642 26 767 
516 1824 2051 403 2534 1344 1362 1400 1343 
1331 1431 1348 1317 1341 1416 1105 1569 1538 
1554 1446 285 356 1477 406 552 1567 1628 
336 1507 1024 1127 1071 1717 566 258 790 
1346 1345 1375 1329 1347 1330 1378 1302 1332 
1318 1286 1364 1370 1342 1314 1384 1568 1409 
1445 1045 1260 1146 1627 1550 99 265 1100 
35 799 529 1669 1493 1417 1432 1360 1377 
1363 1392 1333 1349 1407 1287 1285 1415 1271 
1122 1511 343 1327 1144 266 1156 1410 49 
1648 757 303 2836 1789 259 3415 290 1509 
1389 1523 1447 1361 1376 1391 1420 1406 1393 
1379 1270 1301 1316 1603 1315 1540 1625 395 
376 513 573 524 1502 268 399 93 1050 
289 1785 1508 1448 1390 1402 1404 1451 1334 
1350 1421 1299 1458 1601 1356 1313 1522 1424 
1086 1061 1582 67 1353 509 1736 620 349 
789 64 3303 1485 1561 388 1433 1443 1388 
1494 1418 1403 1405 1449 1429 1367 1312 525 
1571 1380 1366 1552 335 262 70 1663 498 
28 319 1459 1460 3454 1579 1461 1442 1408 
1434 1436 1481 1272 1490 1355 1585 1337 1594 
1116 1280 1718 2274 329 533 12 1462 1466 
778 822 1463 1464 1467 1468 1465 1469 1311 
1440 1435 1288 1268 1256 1422 1303 1340 1542 
1570 276 1085 1103 1322 1553 1309 402 1106 
1068 788 1470 798 1471 1472 1473 1474 1255 
1319 1335 1326 1505 1414 1300 383 1526 363 
1527 535 39 1060 405 264 309 593 1694 
1695 1699 1804 579 307 1696 1697 1700 1701 
1698 1702 1283 1476 1075 1457 1624 1497 1352 
1557 1249 1587 1606 305 1251 502 504 75 
585 78 1641 561 583 1703 1707 1805 549 
800 1704 1705 1708 1709 1706 1710 1609 1635 
60 286 1660 326 1279 1644 306 1604 1679 
1154 386 316 1536 1055 606 1056 624 528 
17 777 1626 1711 1712 1823 810 569 1822 
1713 811 1828 1631 1564 384 546 1113 394 
1048 544 296 1130 1132 1615 77 1584 1040 
79 1721 656 626 1589 269 1690 518 29 
809 2840 1862 1843 2830 374 311 365 1662 
37 1613 340 565 315 404 1145 56 1629 
1382 1427 401 1530 1074 602 59 1053 353 
1636 615 1036 299 619 24 310 756 1820 
2852 819 1157 364 526 1634 385 1528 1250 
1444 1562 46 68 1077 1617 322 1072 603 
1751 625 1684 1595 373 295 2423 1082 298 
599 2827 609 1841 832 591 576 511 1066 
1575 1111 272 57 635 47 2578 1766 2595 
1747 1733 595 352 372 1655 1638 1011 1649 
81 497 1025 588 808 630 2831 1848 643 
87 541 1078 1057 360 1781 634 371 1583 
1544 293 1548 1654 294 1454 1653 1623 100 
536 324 1037 1083 267 538 23 92 797 
2839 1821 821 616 1740 1716 274 69 1771 
1685 1412 1754 332 604 1670 563 362 1722 
1724 2338 1630 1666 1052 1097 308 42 32 
300 650 578 796 1844 830 1819 605 1755 
1659 80 1686 323 1671 2503 1545 2629 15 
3 1692 543 1676 1010 18 1030 287 328 
378 288 755 548 787 639 766 618 828 
2835 820 1840 1720 1500 1515 1031 1278 1667 
1681 387 1034 52 1047 1032 367 277 567 
318 278 649 608 629 776 806 816 817 
818 1838 1845 2841 16 398 508 337 25 
347 607 368 648 338 775 358 637 628 
805 568 765 786 815 839 840 841 807 
831 842 1835 1836 1852 1842 1839 794 795 
850 849 824 835 851 852 785 825 1849 
1850 836 826 837 1851 1853 827 838 1854 
1855 829 1856 1857 1834 1858 1859 1837 1860 
1861 1863 1864 1865 1879 1880 1866 1867 1881 
1882 1868 1869 1883 1884 1870 1871 1885 1886 
1872 1873 1887 1888 1874 1875 1889 1890 1876 
1877 1891 1892 1878 1893 1894 1895 1909 1910 
1896 1897 1911 1912 1898 1899 1913 1914 1900 
1901 1915 1916 1902 1903 1917 1918 1904 1905 
1919 1920 1906 1907 1921 1922 1908 1923 1924 
1925 1939 1940 1926 1927 1941 1942 1928 1929 
1943 1944 1930 1931 1945 1946 1932 1933 1947 
1948 1934 1935 1949 1950 1937 1952 1951 1936 
1938 1953 2114 2115 2130 2131 2116 2117 2132 
2133 2118 2119 2134 2135 2120 2121 2136 2137 
2122 2123 2138 2139 2124 2125 2140 2141 2126 
2127 2142 2143 2128 2129 2144 2145 2146 2147 
2162 2163 2148 2149 2164 2165 2150 2151 2166 
2167 2152 2153 2168 2169 2154 2155 2170 2171 
2156 2157 2172 2173 2158 2159 2174 2175 2160 
2161 2176 2177 2178 2179 2194 2195 2180 2181 
2196 2197 2182 2183 2198 2199 2184 2185 2200 
2201 2186 2187 2202 2203 2188 2189 2204 2205 
2190 2191 2206 2207 2192 2193 2208 2209 1954 
1799 74 2984 281 3348 2743 3388 641 3406 
2053 3278 291 3188 3299 2779 769 94 2976 
3433 2797 3367 3128 2793 2765 2791 1831 2307 
645 3425 351 2810 1758 1829 631 3137 3482 
2814 389 1807 3474 3279 3473 3472 2988 2605 
580 2809 2637 1812 3464 3339 3446 2812 2009 
3259 3272 3157 3455 2823 3333 2068 2560 3378 
279 2815 2796 2801 1973 2816 2828 2373 3253 
3057 3012 3343 2626 2607 3043 3185 2030 2057 
2046 3245 3044 2656 2086 3362 3364 2665 2472 
3059 2228 2651 2998 3369 1439 2544 3010 2592 
3255 2012 2010 3145 2044 3226 3312 3035 3005 
2108 3212 2272 3195 2337 2089 3042 2221 2572 
2375 2106 2992 2223 2224 3013 2015 3269 3334 
2837 2455 3130 2650 2259 2565 2039 3165 3004 
2101 2424 2321 2096 2574 2222 2293 2425 2490 
2063 2277 2405 2358 2529 2241 2474 2058 2270 
2480 2554 1806 1980 2729 3447 3125 3284 2497 
3282 2757 2342 2112 2103 2367 2456 2073 2400 
2334 2318 2297 2350 2399 2366 2328 2387 2415 
2540 2522 3407 2418 1619 95 1847 2985 2635 
2036 3316 2496 3133 2506 3134 3187 2100 2357 
2403 2421 3204 2494 2300 3132 2314 2298 2296 
2313 2299 2317 2312 2329 2541 2333 3475 2826 
3048 2502 2371 2834 3359 2323 2014 2028 3292 
2599 2262 3213 3244 2302 2521 2282 2280 2557 
2281 2265 2295 2249 2343 2311 2360 2332 2327 
2345 2361 2315 2819 2825 3309 3049 3209 3050 
1987 3242 3174 3326 3144 2038 2016 2308 2075 
2235 2336 2401 2310 2218 2250 2248 2426 2378 
2394 2264 2330 2344 2316 2331 1757 3427 1994 
2986 3492 2623 3158 2975 3003 3154 3345 2419 
2017 2047 3054 3214 2283 2352 2285 2555 2393 
2234 2236 2395 2377 2458 2380 2349 2347 2364 
3030 2430 2431 2432 2433 2434 3437 3465 3159 
2067 2669 2528 2239 2829 3015 2368 3183 2284 
2301 2266 2231 2320 2279 2233 2427 2379 2346 
2348 2363 2362 2365 2435 2436 2440 2441 2437 
2438 2442 2443 2439 2444 3398 2563 2972 2625 
3483 2510 2763 2088 3135 2542 2351 2252 2410 
2411 2254 2412 2461 2413 2397 2381 2445 2446 
2447 2448 2449 3160 1989 3034 3389 2643 3045 
2288 3267 2324 2585 2267 2420 2341 2566 2247 
2219 2396 2428 2459 2326 2294 2680 2681 2686 
2687 2682 2683 2688 2689 2684 2685 2690 1846 
3060 2618 3246 3014 3216 3403 3323 2591 2559 
2511 2319 2479 2303 2416 2353 2255 2404 2107 
2286 2253 2691 2692 2696 2697 2693 2694 2698 
2699 2695 2700 3456 3169 2020 3352 2772 2359 
2005 2275 2060 2271 2384 2292 2229 2526 2102 
2335 2369 2069 2055 2586 2589 1825 2701 2702 
2705 3484 2817 2824 2703 2704 3289 3476 3349 
2983 2226 1965 3227 2718 3276 2113 2407 3262 
2577 2062 2214 2537 2408 2571 2087 3236 2505 
3222 3274 3002 2832 3466 3485 3438 3139 2535 
3221 2973 2099 2670 3205 2029 3365 2602 2007 
2025 2211 3126 3233 2061 2463 3153 3202 2071 
2049 2385 2570 2048 2072 2245 3189 2833 3178 
3457 1976 2649 3140 2339 2616 3206 2659 2673 
2762 3393 3176 3297 3016 3337 2582 2004 3235 
2545 2575 2244 2097 2289 2080 2065 3224 2230 
2556 3280 3199 3495 2019 2987 2978 2609 2002 
2485 3175 3375 3053 3275 2759 1997 3207 3423 
3287 3024 3193 2766 2256 2023 3332 2603 3052 
3006 2993 2608 2543 3313 3172 3408 3170 3496 
3329 1981 1974 3179 3009 1990 2486 3304 3335 
2033 2746 2498 3286 3217 2737 2011 3037 3422 
2013 572 3019 3394 2820 2536 3026 3396 3177 
3502 3477 3310 3379 3493 3190 1985 3219 2549 
2666 1977 2468 2619 3382 2484 2466 2452 3336 
2719 2749 3366 3376 2751 3395 3356 2747 3166 
1964 1995 2773 2764 3355 3307 3494 2843 3428 
3399 3180 3281 2999 2488 2990 2655 1982 2667 
2642 2630 3196 2451 2516 2515 3266 3354 3306 
2787 2778 2716 3412 2050 2774 3247 2771 2862 
3486 2845 3448 3419 3300 3400 3311 3250 3230 
2356 3261 3181 2981 1975 2639 2354 2653 2962 
2713 3302 3344 2730 2597 3392 2648 3372 2641 
2594 2707 3373 3402 2847 2846 3506 3504 3467 
3487 3370 3320 3409 3390 3449 3000 3360 3301 
3168 2989 3161 3021 3171 2969 3210 3191 1413 
2003 2726 3131 2390 1972 2624 3285 3051 2842 
2850 2856 2844 2849 3497 3513 3498 3478 3458 
3505 3439 3468 3499 3489 3330 3429 3200 3410 
3290 3350 3270 3421 3040 3251 3430 3240 3151 
2851 2838 2853 2848 2854 2855 3512 3503 2857 
2858 3514 2859 3515 2860 3516 3507 2861 2863 
3517 3488 3508 2864 2865 3518 3509 3522 3523 
3469 3519 3510 3524 3459 3525 2866 2867 2882 
2883 2868 2869 2884 2885 2870 2871 2886 2887 
2872 2873 2888 2889 2874 2875 2890 2891 2876 
2877 2892 2893 2878 2879 2894 2895 2880 2881 
2896 2897 2898 2899 2914 2915 2900 2901 2916 
2917 2902 2903 2918 2919 2904 2905 2920 2921 
2906 2907 2922 2923 2908 2909 2924 2925 2910 
2911 2926 2927 2912 2913 2928 2929 2930 2931 
2946 2947 2932 2933 2948 2949 2934 2935 2950 
2951 2936 2937 2952 2953 2938 2939 2954 2955 
2940 2941 2956 2957 2959 2958 2943 2942 2944 
2960 2961 2945 3062 3063 3078 3079 3064 3065 
3080 3081 3066 3067 3082 3083 3068 3069 3084 
3085 3070 3071 3086 3087 3592 3593 3598 3599 
3594 3595 3600 3601 3596 3597 3602 3603 3094 
3095 3110 3111 3096 3097 3112 3113 3098 3099 
3114 3115 3100 3101 3116 3117 3102 3103 3118 
3119 3604 3605 3610 3611 3606 3607 3612 3613 
3608 3609 3614 3615 3090 3091 3120 3121 3088 
3089 3108 3109 3076 3077 3106 3107 3074 3075 
3104 3105 3072 3073 3092 3093 3616 3617 3622 
3623 3618 3619 3624 3625 3620 3621 3626 3627 
1768 2800 1752 3318 2807 539 2785 2731 1727 
2995 3056 2742 3368 2727 1955 2783 1668 2662 
1956 2644 2454 1961 1962 1967 3628 3629 3634 
3635 3630 3631 3636 3637 3632 3633 3638 3639 
3129 3417 3418 3260 3032 2614 3358 1979 2994 
3397 3319 3377 2782 1959 1957 2710 1968 3640 
3641 3646 3647 3642 3643 3648 3649 3644 3645 
3650 3651 3353 2593 2613 3436 2638 2043 2979 
3149 3215 3028 2811 2212 761 3198 3338 1958 
3249 2548 2082 3652 3653 3658 3659 3654 3655 
3660 3661 3656 3657 3662 3663 3383 3025 2054 
2464 2040 2664 3264 3163 2391 2081 1983 2045 
3416 1811 2243 3443 3424 2098 3442 1498 2963 
3664 3665 3670 3671 3666 3667 3672 3673 3668 
3669 3674 3675 3182 3203 2094 2215 3296 2406 
2600 3237 2636 3164 2741 2261 3223 2822 2567 
3463 3138 2767 1817 3676 3677 3682 3683 3679 
3685 3684 3678 3680 3681 3686 3687 2273 2240 
3283 2553 2091 3192 2093 2077 2309 2568 3315 
3162 3124 3295 3173 3426 2997 2813 3452 2654 
2786 2803 3688 3689 3694 3695 3690 3691 3696 
3697 3692 3693 3698 3699 2325 2246 2539 2525 
2111 2076 2520 3294 2588 2291 2500 3047 2668 
3258 3218 1714 3414 3700 3701 3706 3707 3702 
3703 3708 3709 3704 3705 3710 3711 2414 2383 
2478 2462 2508 2523 2269 2457 2074 3186 2660 
2027 3023 2671 2501 2031 3142 3022 2006 2622 
2776 2001 3712 3713 3718 3719 3714 3715 3720 
3721 3716 3717 3722 3723 2473 2493 2388 2092 
2109 2524 2217 2070 3305 3363 2551 3254 2041 
3435 2736 3146 2732 3724 3725 3730 3731 3726 
3727 3732 3733 3728 3729 3734 3735 2491 2509 
2398 2475 2392 2260 2110 2409 3033 2386 2026 
2581 2213 2583 2552 3147 3445 2768 1960 3444 
3736 3737 3742 3743 3738 3739 3744 3745 3740 
3741 3746 3747 2382 2389 2429 2477 2422 2376 
2340 2104 2305 2032 2606 2558 3122 2569 2996 
3156 1970 3148 3017 3277 3748 3749 3754 3755 
3750 3751 3756 3757 3752 3753 3758 3759 2492 
2476 2460 2278 2238 2216 2090 2504 2527 2465 
2232 2640 2532 1998 3243 1999 1773 2744 3760 
3761 3766 3767 3762 3763 3768 3769 3764 3765 
3770 3771 2263 2507 2489 2304 2370 2287 2538 
2417 2587 3039 3123 2000 3434 2579 762 3058 
2258 3036 1753 1802 3773 3772 3775 3774 3777 
3776 2105 3232 2237 2402 2495 2481 2561 3155 
2584 2227 3322 3234 2550 3038 3029 3385 2780 
3298 3778 3779 3784 3785 3780 3781 3786 3787 
3782 3783 3788 3789 2251 2268 2064 2220 2573 
2056 3314 2042 2633 3027 2021 1991 3225 3208 
2008 3386 2754 2355 2777 2708 2530 3790 3791 
3796 3797 3792 3793 3798 3799 3794 3795 3800 
3801 3324 2059 2276 2513 2652 3342 2095 2601 
3018 3308 3453 3268 3007 3008 2761 2740 2717 
3802 3803 3808 3809 3804 3805 3810 3811 3806 
3807 3812 3813 2225 3263 2085 3293 2083 3194 
3273 2576 2784 3143 2631 3252 3239 3357 3257 
2469 1963 2733 2965 3814 3815 3820 3821 3816 
3817 3822 3823 3818 3819 3824 3825 3184 3152 
2798 2079 341 2024 3055 2794 3328 1734 3256 
2450 613 2596 2723 2966 2739 2621 3826 3827 
3832 3833 3828 3829 3834 3835 3830 3831 3836 
3837 1993 2257 2604 3046 2078 2620 2374 3167 
3288 3347 3248 2617 2804 3127 2792 3327 2982 
2677 2967 2755 2970 2971 3838 3839 3844 3845 
3840 3841 3846 3847 3842 3843 3848 3849 2037 
1719 3228 2512 1996 2750 3197 3405 2775 3404 
1426 2632 2084 2533 2712 2968 2991 2709 3011 
3850 3851 3856 3857 3852 3853 3858 3859 3854 
3855 3860 3861 2022 3136 2722 2758 2724 2789 
3432 2752 2290 3317 2661 2714 2679 2734 3031 
3325 3041 3862 3863 3868 3869 3870 3865 3864 
3871 3867 3872 3873 3866 2735 2745 3346 3413 
3238 2612 636 1750 2306 2720 2756 2562 2482 
2977 2964 3001 2467 3201 1969 3061 3874 3875 
3880 3881 3876 3877 3882 3883 3878 3879 3884 
3885 2453 2514 2499 2372 2676 2711 2663 2760 
2647 2657 2672 1971 3211 2210 2322 3231 3291 
2590 3331 3886 3887 3892 3893 3888 3889 3894 
3895 3890 3891 3896 3897 2646 2615 1966 2598 
3265 1988 2519 2627 2611 1984 1978 2634 2675 
2974 2035 3141 3241 3321 3381 2518 3411 3898 
3899 3904 3905 3900 3901 3906 3907 3902 3903 
3908 3909 3271 3391 3341 3340 3020 2052 3401 
3420 3361 3371 3220 3441 3150 3351 3461 2980 
3431 3471 3481 3910 3911 3916 3917 3912 3913 
3918 3919 3914 3915 3920 3921 3526 3479 3480 
3450 3451 3527 3520 3528 3490 3460 3529 3500 
3380 3470 3530 3511 3440 3491 3501 3521 3531 
3922 3923 3928 3929 3924 3925 3930 3931 3926 
3927 3932 3933 3532 3533 3548 3549 3534 3535 
3550 3551 3536 3537 3552 3553 3538 3539 3554 
3555 3540 3541 3556 3557 3934 3935 3940 3941 
3936 3937 3942 3943 3938 3939 3944 3945 3564 
3565 3580 3581 3566 3567 3582 3583 3568 3569 
3584 3585 3570 3571 3586 3587 3572 3573 3588 
3589 3946 3947 3952 3953 3948 3949 3954 3955 
3950 3951 3956 3957 3560 3561 3590 3591 3558 
3559 3578 3579 3546 3547 3576 3577 3544 3545 
3574 3575 3542 3543 3562 3563 3958 3959 3964 
3965 3960 3961 3966 3967 3969 3962 3968 3963 

C_[0] 1 3969 double
0 0 0 0 0 0 0 0 0 
0 0 0 0 0 0 0 0 0 
0 0 0 0 0 0 0 0 0 
0 0 0 0 0 0 0 0 0 
0 0 0 0 0 0 0 0 0 
0 0 0 0 0 0 0 0 0 
0 0 0 0 0 0 0 0 0 
0 0 0 0 0 0 0 0 0 
0 0 0 0 0 0 0 0 0 
0 0 0 0 0 0 0 0 0 
0 0 0 0 0 0 0 0 0 
0 0 0 0 0 0 0 0 0 
0.00154507 0.00291405 0.00921564 0.0177968 0.0125987 0.00576314 0.0256196 0.00900892 0.0237618 
0.0319441 0.0146542 0.0510594 0.0155072 0.0552553 0.0202358 0.0461144 0.0248463 0.0790214 
0.0889689 0.0897233 0 0 0 0 0 0 0 
0 0 0 0 0 0.0201084 0.0136376 0.00460802 0.00836682 
0.0418234 0.0406083 0.0343134 0.0584574 0.0553279 0.0782663 0.0619132 0.0962799 0.0933422 
0.084586 0.094752 0.13266 0.134205 0.117971 0.151664 0.138913 0.195006 0 
0 0 0 0 0 0 0 0 0 