# vtk DataFile Version 3.0
Generated by LAMMPS
ASCII
DATASET POLYDATA
POINTS 3969 float
-0.607843 -0.607843 0 -0.588235 -0.607843 0 -0.607843 -0.588235 0 
-0.588235 -0.588235 0 -0.568627 -0.607843 0 -0.54902 -0.607843 0 
-0.568627 -0.588235 0 -0.54902 -0.588235 0 -0.529412 -0.607843 0 
-0.509804 -0.607843 0 -0.529412 -0.588235 0 -0.509804 -0.588235 0 
-0.490196 -0.607843 0 -0.470588 -0.607843 0 -0.490196 -0.588235 0 
-0.470588 -0.588235 0 -0.45098 -0.607843 0 -0.431373 -0.607843 0 
-0.45098 -0.588235 0 -0.431373 -0.588235 0 -0.411765 -0.607843 0 
-0.392157 -0.607843 0 -0.411765 -0.588235 0 -0.392157 -0.588235 0 
-0.372549 -0.607843 0 -0.352941 -0.607843 0 -0.372549 -0.588235 0 
-0.352941 -0.588235 0 -0.333333 -0.607843 0 -0.313726 -0.607843 0 
-0.333333 -0.588235 0 -0.313726 -0.588235 0 -0.607843 -0.568627 0 
-0.588235 -0.568627 0 -0.607843 -0.54902 0 -0.588235 -0.54902 0 
-0.568627 -0.568627 0 -0.54902 -0.568627 0 -0.568627 -0.54902 0 
-0.54902 -0.54902 0 -0.529412 -0.568627 0 -0.509804 -0.568627 0 
-0.529412 -0.54902 0 -0.509804 -0.54902 0 -0.490196 -0.568627 0 
-0.470588 -0.568627 0 -0.490196 -0.54902 0 -0.470588 -0.54902 0 
-0.45098 -0.568627 0 -0.431373 -0.568627 0 -0.45098 -0.54902 0 
-0.431373 -0.54902 0 -0.411765 -0.568627 0 -0.392157 -0.568627 0 
-0.411765 -0.54902 0 -0.392157 -0.54902 0 -0.372549 -0.568627 0 
-0.352941 -0.568627 0 -0.352941 -0.54902 0 -0.372549 -0.54902 0 
-0.333333 -0.568627 0 -0.313726 -0.568627 0 -0.313726 -0.54902 0 
-0.333333 -0.54902 0 -0.607843 -0.529412 0 -0.588235 -0.529412 0 
-0.607843 -0.509804 0 -0.588235 -0.509804 0 -0.568627 -0.529412 0 
-0.54902 -0.529412 0 -0.568627 -0.509804 0 -0.54902 -0.509804 0 
-0.529412 -0.529412 0 -0.509804 -0.529412 0 -0.529412 -0.509804 0 
-0.509804 -0.509804 0 -0.470588 -0.509804 0 -0.490196 -0.509804 0 
-0.470588 -0.529412 0 -0.490196 -0.529412 0 -0.431373 -0.509804 0 
-0.45098 -0.509804 0 -0.431373 -0.529412 0 -0.45098 -0.529412 0 
-0.392157 -0.509804 0 -0.411765 -0.509804 0 -0.392157 -0.529412 0 
-0.411765 -0.529412 0 -0.352941 -0.509804 0 -0.372549 -0.509804 0 
-0.352941 -0.529412 0 -0.372549 -0.529412 0 -0.313726 -0.509804 0 
-0.333333 -0.509804 0 -0.313726 -0.529412 0 -0.333333 -0.529412 0 
-0.607843 -0.490196 0 -0.588235 -0.490196 0 -0.607843 -0.470588 0 
-0.588235 -0.470588 0 -0.568627 -0.490196 0 -0.54902 -0.490196 0 
-0.568627 -0.470588 0 -0.54902 -0.470588 0 -0.529412 -0.490196 0 
-0.509804 -0.490196 0 -0.529412 -0.470588 0 -0.509804 -0.470588 0 
-0.5 -0.491837 0 -0.480997 -0.499861 0 -0.484812 -0.473495 0 
-0.466689 -0.473484 0 -0.463367 -0.484511 0 -0.454306 -0.499128 0 
-0.44782 -0.469843 0 -0.431649 -0.471798 0 -0.431666 -0.499487 0 
-0.425821 -0.484688 0 -0.408089 -0.493509 0 -0.401527 -0.477805 0 
-0.384948 -0.5 0 -0.362231 -0.497846 0 -0.38285 -0.479207 0 
-0.364552 -0.473652 0 -0.352261 -0.465354 0 -0.344464 -0.492474 0 
-0.323508 -0.499289 0 -0.335743 -0.475552 0 -0.321478 -0.470391 0 
-0.607843 -0.45098 0 -0.588235 -0.45098 0 -0.607843 -0.431373 0 
-0.588235 -0.431373 0 -0.568627 -0.45098 0 -0.54902 -0.45098 0 
-0.568627 -0.431373 0 -0.54902 -0.431373 0 -0.529412 -0.45098 0 
-0.509804 -0.45098 0 -0.529412 -0.431373 0 -0.509804 -0.431373 0 
-0.472849 -0.452129 0 -0.489071 -0.444164 0 -0.5 -0.463141 0 
-0.5 -0.428559 0 -0.470455 -0.431379 0 -0.456799 -0.447429 0 
-0.445179 -0.432909 0 -0.43426 -0.448589 0 -0.415573 -0.462006 0 
-0.396795 -0.458066 0 -0.42168 -0.437865 0 -0.403341 -0.438149 0 
-0.378465 -0.458314 0 -0.388365 -0.432297 0 -0.370586 -0.442428 0 
-0.368606 -0.423646 0 -0.350915 -0.444862 0 -0.350067 -0.424447 0 
-0.334141 -0.450106 0 -0.330972 -0.429609 0 -0.31497 -0.447791 0 
-0.607843 -0.411765 0 -0.588235 -0.411765 0 -0.607843 -0.392157 0 
-0.588235 -0.392157 0 -0.568627 -0.411765 0 -0.54902 -0.411765 0 
-0.568627 -0.392157 0 -0.54902 -0.392157 0 -0.529412 -0.411765 0 
-0.509804 -0.411765 0 -0.529412 -0.392157 0 -0.509804 -0.392157 0 
-0.484227 -0.41679 0 -0.496411 -0.397549 0 -0.474591 -0.393817 0 
-0.465361 -0.413361 0 -0.446658 -0.412268 0 -0.455947 -0.391964 0 
-0.43713 -0.390996 0 -0.429846 -0.416014 0 -0.412553 -0.417177 0 
-0.422305 -0.392853 0 -0.405401 -0.397431 0 -0.392545 -0.412754 0 
-0.388765 -0.384271 0 -0.378864 -0.402079 0 -0.361352 -0.404235 0 
-0.352093 -0.387676 0 -0.339472 -0.406359 0 -0.331369 -0.388016 0 
-0.32201 -0.410099 0 -0.607843 -0.372549 0 -0.588235 -0.372549 0 
-0.607843 -0.352941 0 -0.588235 -0.352941 0 -0.568627 -0.372549 0 
-0.54902 -0.372549 0 -0.568627 -0.352941 0 -0.54902 -0.352941 0 
-0.529412 -0.372549 0 -0.509804 -0.372549 0 -0.529412 -0.352941 0 
-0.509804 -0.352941 0 -0.483905 -0.378245 0 -0.475605 -0.352797 0 
-0.498931 -0.364536 0 -0.466874 -0.371729 0 -0.447814 -0.371162 0 
-0.457615 -0.349628 0 -0.436233 -0.36051 0 -0.404255 -0.374155 0 
-0.420625 -0.369229 0 -0.412715 -0.349746 0 -0.397779 -0.352171 0 
-0.368582 -0.378235 0 -0.38196 -0.365572 0 -0.3623 -0.357256 0 
-0.346963 -0.368572 0 -0.331834 -0.361991 0 -0.315166 -0.358059 0 
-0.316799 -0.380755 0 -0.607843 -0.333333 0 -0.588235 -0.333333 0 
-0.607843 -0.313726 0 -0.588235 -0.313726 0 -0.568627 -0.333333 0 
-0.54902 -0.333333 0 -0.568627 -0.313726 0 -0.54902 -0.313726 0 
-0.529412 -0.333333 0 -0.509804 -0.333333 0 -0.529412 -0.313726 0 
-0.509804 -0.313726 0 -0.481946 -0.339829 0 -0.498761 -0.330909 0 
-0.469857 -0.310108 0 -0.488565 -0.311781 0 -0.46617 -0.326694 0 
-0.432992 -0.340452 0 -0.449519 -0.332251 0 -0.438366 -0.313674 0 
-0.420854 -0.328466 0 -0.405158 -0.323127 0 -0.423195 -0.304571 0 
-0.392558 -0.311051 0 -0.37514 -0.342771 0 -0.38917 -0.333399 0 
-0.376303 -0.306966 0 -0.366712 -0.322867 0 -0.353442 -0.33937 0 
-0.351513 -0.314652 0 -0.337432 -0.341132 0 -0.316669 -0.314748 0 
-0.335113 -0.318219 0 -0.320691 -0.335413 0 -0.607843 -0.294118 0 
-0.588235 -0.294118 0 -0.607843 -0.27451 0 -0.588235 -0.27451 0 
-0.568627 -0.294118 0 -0.54902 -0.294118 0 -0.568627 -0.27451 0 
-0.54902 -0.27451 0 -0.529412 -0.294118 0 -0.509804 -0.294118 0 
-0.529412 -0.27451 0 -0.509804 -0.27451 0 -0.49512 -0.281739 0 
-0.468941 -0.273116 0 -0.484657 -0.294961 0 -0.445405 -0.275431 0 
-0.46073 -0.287202 0 -0.43262 -0.287793 0 -0.451034 -0.302812 0 
-0.414379 -0.27516 0 -0.392981 -0.287718 0 -0.408401 -0.294627 0 
-0.378628 -0.278728 0 -0.36515 -0.291301 0 -0.346839 -0.271056 0 
-0.327209 -0.276925 0 -0.331211 -0.295869 0 -0.348629 -0.292659 0 
-0.607843 -0.254902 0 -0.588235 -0.254902 0 -0.607843 -0.235294 0 
-0.588235 -0.235294 0 -0.568627 -0.254902 0 -0.54902 -0.254902 0 
-0.568627 -0.235294 0 -0.54902 -0.235294 0 -0.529412 -0.254902 0 
-0.509804 -0.254902 0 -0.529412 -0.235294 0 -0.509804 -0.235294 0 
-0.475186 -0.258211 0 -0.495619 -0.260345 0 -0.475025 -0.239483 0 
-0.497444 -0.235365 0 -0.429549 -0.263573 0 -0.455948 -0.254847 0 
-0.439971 -0.247483 0 -0.459279 -0.23171 0 -0.441578 -0.225974 0 
-0.400606 -0.263678 0 -0.413243 -0.249971 0 -0.424209 -0.234568 0 
-0.404903 -0.227336 0 -0.39197 -0.240566 0 -0.361825 -0.265761 0 
-0.382926 -0.258167 0 -0.367881 -0.245787 0 -0.35888 -0.230672 0 
-0.331339 -0.255465 0 -0.346168 -0.246628 0 -0.325 -0.231438 0 
-0.314454 -0.249996 0 -0.607843 -0.215686 0 -0.588235 -0.215686 0 
-0.607843 -0.196078 0 -0.588235 -0.196078 0 -0.568627 -0.215686 0 
-0.54902 -0.215686 0 -0.568627 -0.196078 0 -0.54902 -0.196078 0 
-0.529412 -0.215686 0 -0.509804 -0.215686 0 -0.529412 -0.196078 0 
-0.509804 -0.196078 0 -0.484348 -0.223546 0 -0.473232 -0.199394 0 
-0.492298 -0.204643 0 -0.443162 -0.207276 0 -0.462158 -0.211098 0 
-0.42775 -0.199315 0 -0.45933 -0.188009 0 -0.417591 -0.214016 0 
-0.391199 -0.208244 0 -0.40429 -0.197658 0 -0.3812 -0.225463 0 
-0.370634 -0.209905 0 -0.352966 -0.206066 0 -0.378481 -0.189369 0 
-0.340978 -0.224462 0 -0.318825 -0.215958 0 -0.338319 -0.200448 0 
-0.327062 -0.190597 0 -0.607843 -0.176471 0 -0.588235 -0.176471 0 
-0.607843 -0.156863 0 -0.588235 -0.156863 0 -0.568627 -0.176471 0 
-0.54902 -0.176471 0 -0.568627 -0.156863 0 -0.54902 -0.156863 0 
-0.529412 -0.176471 0 -0.509804 -0.176471 0 -0.529412 -0.156863 0 
-0.509804 -0.156863 0 -0.469278 -0.172013 0 -0.492834 -0.184153 0 
-0.468045 -0.15749 0 -0.49032 -0.166064 0 -0.437513 -0.182478 0 
-0.446705 -0.170682 0 -0.429142 -0.148919 0 -0.446041 -0.149216 0 
-0.413307 -0.180599 0 -0.392526 -0.178604 0 -0.421572 -0.165227 0 
-0.402263 -0.160516 0 -0.362279 -0.185708 0 -0.352581 -0.173663 0 
-0.379735 -0.162741 0 -0.366726 -0.156433 0 -0.311213 -0.188189 0 
-0.337234 -0.169662 0 -0.319338 -0.166017 0 -0.607843 -0.137255 0 
-0.588235 -0.137255 0 -0.607843 -0.117647 0 -0.588235 -0.117647 0 
-0.568627 -0.137255 0 -0.54902 -0.137255 0 -0.568627 -0.117647 0 
-0.54902 -0.117647 0 -0.529412 -0.137255 0 -0.509804 -0.137255 0 
-0.529412 -0.117647 0 -0.509804 -0.117647 0 -0.473692 -0.139888 0 
-0.486511 -0.129373 0 -0.499985 -0.148158 0 -0.479332 -0.115402 0 
-0.456818 -0.133921 0 -0.440752 -0.126593 0 -0.389408 -0.143589 0 
-0.407209 -0.140275 0 -0.421025 -0.129819 0 -0.390683 -0.119362 0 
-0.408064 -0.114863 0 -0.358403 -0.139733 0 -0.376872 -0.13006 0 
-0.355108 -0.119569 0 -0.342712 -0.150433 0 -0.323618 -0.144979 0 
-0.338664 -0.129915 0 -0.315549 -0.12921 0 -0.607843 -0.0980392 0 
-0.588235 -0.0980392 0 -0.607843 -0.0784314 0 -0.588235 -0.0784314 0 
-0.568627 -0.0980392 0 -0.54902 -0.0980392 0 -0.568627 -0.0784314 0 
-0.54902 -0.0784314 0 -0.529412 -0.0980392 0 -0.509804 -0.0980392 0 
-0.529412 -0.0784314 0 -0.509804 -0.0784314 0 -0.488736 -0.101878 0 
-0.46453 -0.0896985 0 -0.468782 -0.0771483 0 -0.497357 -0.0875192 0 
-0.462077 -0.108678 0 -0.426519 -0.106969 0 -0.446038 -0.107093 0 
-0.443362 -0.0853472 0 -0.422773 -0.0898411 0 -0.402715 -0.0962431 0 
-0.405897 -0.0764806 0 -0.385187 -0.0750114 0 -0.372528 -0.10879 0 
-0.383832 -0.0945328 0 -0.36165 -0.0920952 0 -0.368813 -0.0724212 0 
-0.348092 -0.0788241 0 -0.328076 -0.110247 0 -0.344886 -0.104141 0 
-0.31281 -0.106143 0 -0.332173 -0.0856637 0 -0.316491 -0.0824983 0 
-0.607843 -0.0588235 0 -0.588235 -0.0588235 0 -0.607843 -0.0392157 0 
[...]
POINT_DATA 3969
FIELD FieldData 5
id 1 3969 int
161 162 167 168 163 164 169 170 165 
166 171 172 107 108 123 124 109 110 
125 126 111 112 127 128 113 114 129 
130 115 116 131 132 173 174 179 180 
175 176 181 182 177 178 183 184 139 
140 155 156 141 142 157 158 143 144 
159 160 145 146 153 154 147 148 151 
152 185 186 191 192 187 188 193 194 
189 190 195 196 119 120 149 150 117 
118 137 138 105 106 135 136 103 104 
133 134 101 102 121 122 197 198 203 
204 199 200 205 206 201 202 207 208 
1013 1015 1499 2242 1019 1021 1759 2628 1023 
2645 2470 1732 1411 2483 771 54 65 263 
2546 2799 621 209 210 215 216 211 212 
217 218 213 214 219 220 2788 1016 1009 
9 623 1779 531 280 1832 3387 1774 1504 
1808 1790 519 379 1029 640 334 574 27 
221 222 227 228 223 224 229 230 225 
226 231 232 622 1803 292 1780 1816 1775 
62 1793 770 1809 759 1307 85 1126 1580 
1354 1682 1298 1277 233 234 239 240 235 
236 241 242 237 238 243 244 1798 571 
1529 610 1665 632 73 1602 1683 1076 1486 
1691 562 1535 1094 1259 325 1581 245 246 
251 252 247 248 253 254 249 250 255 
256 1794 2487 1646 1776 1046 791 13 586 
1276 1043 344 1519 1339 88 1265 1263 1310 
1294 1124 1492 1401 1138 407 408 413 414 
409 410 415 416 411 412 417 418 1592 
369 2790 33 390 19 354 1324 1252 503 
1643 1131 1456 1328 1386 1387 419 420 425 
426 421 422 427 428 423 424 429 430 
2531 614 2769 1017 1101 792 1657 320 1395 
1151 1109 1129 1266 1153 1524 1290 1275 1372 
1317 1431 1331 1348 431 432 437 438 433 
434 439 440 435 436 441 442 2753 2748 
96 570 260 556 540 1088 1104 1267 1139 
1371 1400 1359 1343 1347 1362 1329 443 444 
449 450 445 446 451 452 447 448 453 
454 564 655 611 86 1576 1099 1452 43 
313 1305 333 1597 1344 1358 1482 1455 1375 
1346 1345 455 456 461 462 457 458 463 
464 459 460 465 466 1778 1058 1022 2738 
1293 1614 1121 1110 1453 1325 1295 1373 1496 
1423 1555 1374 1572 1441 467 468 473 474 
469 470 475 476 471 472 477 478 782 
36 1730 1020 1745 1588 1051 554 1501 1135 
1599 1147 355 1118 1119 506 1133 1541 1321 
1478 1320 1120 479 480 485 486 481 482 
487 488 483 484 489 490 654 612 1012 
330 1610 1640 1815 1084 1261 542 381 1090 
1645 592 1257 1134 491 492 493 494 495 
496 400 1725 590 644 7 1018 781 1782 
520 270 1647 1091 301 1637 1059 1593 1092 
1152 1281 1304 1351 657 658 663 664 659 
660 665 666 661 662 667 668 1763 1143 
2471 1598 2806 1081 1651 1830 1633 1323 1560 
1140 314 1551 1556 1253 284 1365 1149 1396 
669 670 675 676 671 672 677 678 673 
674 679 680 312 1618 2674 34 2034 560 
63 1791 550 1656 1438 1483 1611 1532 523 
534 304 1262 1586 1616 681 682 687 688 
683 684 689 690 685 686 691 692 2658 
2725 2706 396 2721 1368 2770 555 1338 1543 
1689 1688 1521 1087 1108 1506 1369 1070 693 
694 699 700 695 696 701 702 697 698 
703 704 1770 1487 1814 1622 1761 1813 1728 
1547 1639 545 55 510 1264 1063 1155 1107 
575 1141 1123 705 706 711 712 707 708 
713 714 709 710 715 716 1784 501 1726 
1577 2802 2517 1533 392 1661 53 1672 1797 
1735 45 1049 1792 1795 1399 275 30 717 
718 723 724 719 720 725 726 721 722 
727 728 646 2 1652 1 1986 331 1738 
302 380 1590 1484 1743 530 66 97 1760 
282 653 2805 1398 76 729 730 735 736 
731 732 737 738 733 734 739 740 1729 
1014 21 2678 1787 2018 1786 1764 1756 581 
1769 1041 633 772 1749 1062 44 521 741 
742 747 748 743 744 749 750 745 746 
751 752 4 31 41 61 5 1742 6 
11 1531 1680 1767 1800 1054 1080 1687 1762 
48 261 321 98 913 914 919 920 915 
916 921 922 917 918 923 924 257 1677 
91 2610 1620 1664 1741 1650 1723 1783 512 
1518 1746 532 391 361 1744 1765 1801 925 
926 931 932 927 928 933 934 929 930 
935 936 1693 357 596 2066 507 2580 1383 
1098 71 2564 20 594 1033 1675 1503 8 
1563 1038 2547 553 1514 393 937 938 943 
944 939 940 945 946 941 942 947 948 
547 1026 597 647 397 1128 317 1558 1607 
1397 1559 1673 22 514 10 1621 1578 1488 
1035 949 950 955 956 951 952 957 958 
953 954 959 960 577 753 783 793 557 
527 72 348 617 327 627 537 297 587 
1028 598 377 1112 517 961 962 967 968 
963 964 969 970 965 966 971 972 774 
803 833 558 843 813 814 844 754 773 
784 845 823 804 846 847 764 834 848 
973 974 979 980 975 976 981 982 977 
978 983 984 859 860 875 876 861 862 
877 878 863 864 879 880 865 866 881 
882 867 868 883 884 985 986 991 992 
987 988 993 994 989 990 995 996 891 
892 907 908 893 894 909 910 895 896 
911 912 897 898 905 906 899 900 903 
904 997 998 1003 1004 999 1000 1005 1006 
1001 1002 1007 1008 871 872 901 902 869 
870 889 890 857 858 887 888 855 856 
885 886 874 853 854 873 1159 1160 1174 
1175 1161 1162 1176 1177 1163 1164 1178 1179 
1165 1166 1180 1181 1167 1168 1182 1183 1169 
1170 1184 1185 1171 1172 1186 1187 1173 1188 
1189 1190 1204 1205 1191 1192 1206 1207 1193 
1194 1208 1209 1195 1196 1210 1211 1197 1198 
1212 1213 1199 1200 1214 1215 1201 1202 1216 
1217 1203 1218 1219 1220 1234 1235 1221 1222 
1236 1237 1223 1224 1238 1239 1225 1226 1240 
1241 1227 1228 1242 1243 1229 1230 1244 1245 
1231 1232 1246 1247 1233 1248 2728 370 642 
3229 1788 3374 1818 652 1158 1748 1064 582 
3462 2781 84 780 1992 559 1308 2818 1810 
801 2795 2715 1833 2821 2808 1777 3384 281 
1799 600 1044 779 584 83 1608 499 382 
1658 271 1425 1737 1591 375 758 1073 1067 
1826 342 651 1827 1513 14 82 339 1096 
403 589 359 768 2796 802 1381 1069 1093 
1674 1148 1296 1596 89 1095 522 1292 366 
50 1516 1546 336 1642 1628 812 767 1306 
1127 26 1550 1071 516 1024 2534 1824 566 
790 345 1632 1573 1125 283 1520 356 1567 
1089 1477 406 552 1409 1507 1511 1045 1260 
1156 1146 1627 266 1410 1717 99 265 1648 
757 799 1100 1669 1117 1357 1538 1554 1102 
1370 285 1342 1568 1122 1415 1445 1327 343 
1315 1144 1540 395 1625 376 49 573 1061 
303 513 1502 1353 259 2836 290 1341 1569 
1105 1416 1286 1446 1318 1314 1349 1285 1384 
1271 1287 1301 1270 1603 1316 1356 1424 1086 
1522 525 1582 335 1366 262 67 1736 509 
1663 524 268 93 349 289 1302 1332 1364 
1333 1392 1407 1393 1379 1350 1601 1458 1313 
1299 1571 1367 1380 1594 1552 1718 1280 1116 
620 70 2274 498 399 789 1050 2819 1378 
1330 1360 1377 1363 1376 1420 1406 1334 1421 
1451 1404 1429 1449 1355 1312 1585 1337 1103 
1570 1553 533 1322 264 402 329 28 822 
1485 1785 1561 1432 1493 1389 1447 1361 1391 
1402 1390 1405 1403 1418 1481 1542 1490 1340 
276 1085 363 1309 535 39 1060 593 1068 
1106 1804 788 12 3209 3303 778 1417 1509 
1539 1523 1448 1388 1494 1436 1272 1434 1422 
1526 1527 1303 405 502 1251 78 1641 583 
549 585 798 309 307 579 319 64 3427 
388 1510 1137 1480 1336 1479 1508 1433 1443 
1495 1442 1408 1268 1256 1435 1505 1300 1587 
383 1606 1249 561 75 1056 606 528 800 
1459 1460 1757 3454 1579 1461 1437 1525 1394 
1419 1274 1450 1311 1288 1255 1414 305 1352 
316 1536 504 1626 79 17 1462 1466 777 
1463 1464 1467 1468 1465 1469 1136 1258 1512 
1289 1150 1273 1440 1335 1474 1326 1557 1604 
1679 1055 1615 624 269 1589 569 1805 1470 
1471 1472 1473 1282 1291 1534 1537 1254 1284 
1283 1319 1497 1624 1457 1154 77 386 1721 
656 1690 29 1694 1695 1699 1823 810 518 
1696 1697 1700 1701 1698 1702 1489 1491 1612 
1565 1385 1269 1476 1075 326 1279 286 306 
1130 1584 1132 1040 626 1530 1053 401 1703 
1707 1822 809 1036 1704 1705 1708 1709 1706 
1710 1574 1297 1430 1475 60 1609 1635 1660 
1644 544 1113 296 1629 1145 1074 602 1382 
353 299 2840 1636 756 1711 1712 811 1843 
1713 1828 1862 2830 1114 90 1428 1600 505 
546 1564 1631 384 374 394 1048 565 315 
56 404 1617 59 1427 1751 615 1595 24 
373 1684 1082 619 310 1820 2852 819 2827 
609 1115 601 515 346 1042 1662 311 365 
1613 37 340 1250 46 1077 1444 322 625 
1072 603 295 2423 352 298 599 81 497 
1841 832 2831 630 500 760 1605 350 1039 
1157 1634 526 364 385 1528 511 1562 68 
47 635 1766 595 2595 1733 1655 372 1011 
1638 1025 1649 588 808 1848 3502 1821 1796 
1079 38 1566 1142 1678 591 576 1575 1066 
1111 272 634 57 2578 293 1583 1747 294 
1653 100 1037 1623 1083 92 23 538 267 
797 2839 821 551 40 1549 643 87 1078 
1057 360 1781 371 1544 1548 1654 563 1454 
324 1722 2338 536 1052 1097 300 32 308 
650 796 1844 830 2843 1715 273 58 274 
541 616 1716 1771 69 1685 1412 1754 332 
604 1670 362 543 1724 1666 1630 42 1030 
378 18 288 578 639 548 787 1819 2835 
820 1772 1739 605 1731 80 1740 1755 1659 
1686 323 1671 2503 1545 2629 3 15 1032 
1692 1676 1010 287 328 629 278 755 766 
618 816 828 1840 1838 1065 1027 1517 1500 
1720 1515 1031 1278 1667 1681 387 1034 52 
1047 367 277 567 318 568 649 608 776 
815 806 817 807 818 1845 2841 1852 2842 
398 25 51 638 16 508 337 347 607 
368 648 338 775 358 637 628 805 765 
786 839 840 841 831 842 1836 1835 1842 
1839 2850 763 794 850 849 795 824 851 
835 852 785 1849 825 1850 836 826 1851 
837 1853 827 1854 838 1855 829 1856 1857 
1834 1858 1859 1837 1860 1861 1863 1864 1865 
1879 1880 1866 1867 1881 1882 1868 1869 1883 
1884 1870 1871 1885 1886 1872 1873 1887 1888 
1874 1875 1889 1890 1876 1877 1891 1892 1878 
1893 1894 1895 1909 1910 1896 1897 1911 1912 
1898 1899 1913 1914 1900 1901 1915 1916 1902 
1903 1917 1918 1904 1905 1919 1920 1906 1907 
1921 1922 1908 1923 1924 1925 1939 1940 1926 
1927 1941 1942 1928 1929 1943 1944 1930 1931 
1945 1946 1932 1933 1947 1948 1934 1935 1949 
1950 1936 1937 1952 1951 1938 1953 2114 2115 
2130 2131 2116 2117 2132 2133 2118 2119 2134 
2135 2120 2121 2136 2137 2122 2123 2138 2139 
2124 2125 2140 2141 2126 2127 2142 2143 2128 
2129 2144 2145 2146 2147 2162 2163 2148 2149 
2164 2165 2150 2151 2166 2167 2152 2153 2168 
2169 2154 2155 2170 2171 2156 2157 2172 2173 
2158 2159 2174 2175 2160 2161 2176 2177 2178 
2179 2194 2195 2180 2181 2196 2197 2182 2183 
2198 2199 2184 2185 2200 2201 2186 2187 2202 
2203 2188 2189 2204 2205 2190 2191 2206 2207 
2192 2193 2208 2209 1954 74 631 2984 3348 
3137 2814 1829 3482 2743 641 3406 3388 1807 
3278 291 2053 2779 3433 769 3188 3367 2765 
3299 94 2791 2976 645 2797 3128 351 279 
2998 3369 1439 2651 2815 2544 2592 3378 2816 
389 2455 2801 3279 3010 3255 3474 1973 2828 
3473 2988 3253 3472 2373 2605 580 2809 3012 
2637 2607 3269 2051 2837 258 3334 1806 1980 
2650 2565 3130 2729 2259 2012 3284 3165 2010 
3226 3004 3145 2039 2044 2321 2497 3035 3312 
3057 2108 2101 2626 3005 3343 3043 35 529 
95 1619 1789 3407 2418 1847 3447 2635 2985 
3316 2371 2036 3125 3133 3187 2506 2757 2496 
3282 2112 2574 2357 2100 2342 2424 2096 3212 
2222 2272 2337 3475 3415 2834 2826 2502 3359 
3242 2014 3326 2323 2028 3213 3244 2599 3134 
3292 2262 2557 2403 3204 2521 3132 2073 2421 
2103 2425 2367 2293 2405 3048 3050 2825 1987 
3049 3144 3003 2419 3054 2038 2017 3214 2016 
2075 2047 2555 2352 2283 2308 2235 2401 2282 
2302 2280 2336 2494 2300 2314 2297 2318 2400 
2456 2975 3174 2623 2528 3345 2829 2669 2239 
3015 2563 2763 2368 3183 2301 2510 2250 2285 
2234 2284 2393 2218 2248 2249 2310 2265 2295 
2313 2298 2281 2296 2299 3309 3154 2067 3492 
3398 2972 2625 3135 3267 3246 3014 2088 3045 
2288 2266 2320 2542 2236 2458 2279 2231 2394 
2311 2426 2264 2312 2360 2343 2327 3158 3159 
2986 3160 3483 1989 3034 3389 3060 3216 3403 
2772 2591 2341 2559 3323 2351 2324 2254 2252 
2585 2233 2427 2380 2378 2377 2395 2347 2361 
2330 1994 3437 3465 2643 2618 1846 3352 2020 
2275 2359 2319 2005 2420 2384 2267 2479 2511 
2379 2410 2411 2219 2346 2364 2362 2348 2344 
2388 2331 2316 2349 3030 2430 2431 2432 2433 
2434 3227 2226 2271 2718 3169 1965 2060 2113 
2229 2416 2353 2292 2247 2412 2566 2428 2397 
2363 2413 2493 2398 2382 2435 2436 2440 2441 
2437 2438 2442 2443 2439 2444 3456 2983 2407 
2099 3276 2526 2102 3262 2303 2396 2326 2255 
2294 2381 2460 2365 2422 2491 2509 2429 2389 
2445 2446 2447 2448 2449 3349 3289 2824 2602 
2029 2973 3365 2062 2214 2577 2069 2107 2286 
2335 2278 2476 2459 2461 2489 2477 2376 2409 
2492 2680 2681 2686 2687 2682 2683 2688 2689 
2684 2685 2690 3476 3139 2670 2535 3205 3233 
2025 3126 2537 2369 2408 2055 2571 2253 2404 
2402 2104 2090 2263 2691 2692 2696 2697 2693 
2694 2698 2699 2817 2695 2700 3221 1976 2616 
2007 2762 3206 3016 2211 2061 2004 3236 2505 
2586 2589 2251 2105 2237 2216 2507 2287 2304 
2701 2702 2705 2832 3485 1825 3484 2703 2704 
3438 3189 3466 2659 2649 3140 3297 3393 3176 
2463 3235 3153 2582 2087 3202 2385 3002 3274 
3222 2268 2064 3232 2573 2220 2495 2833 3457 
3280 3178 2339 2987 2019 2673 2609 3175 3337 
3375 1997 2759 3287 2244 2575 2545 2071 2049 
2245 2097 2570 2048 2059 2225 3324 2056 2652 
3314 2276 3199 3495 3170 3408 2002 2978 1981 
2485 3053 2486 2033 3275 3207 3423 3193 3332 
2256 2289 2080 2556 2072 2230 2065 2085 3263 
3293 3184 2083 3496 3179 3329 3009 3310 1974 
3304 1990 2666 3335 2746 2498 3286 3217 3024 
2737 3037 2766 2023 2603 2013 3052 3006 3313 
3172 2608 3224 2257 2079 2798 3152 3477 3379 
3190 3219 3493 2549 1977 1985 3382 2468 2484 
2466 2719 2011 3376 3336 3422 2747 572 3019 
3395 3394 2993 2820 3026 3396 2543 2604 2536 
2620 1993 2078 3046 3494 3428 3281 3180 2488 
2619 2999 2452 2655 2642 2667 3196 2749 3366 
2451 2751 3356 3166 1964 1995 3177 2773 2764 
3307 3355 1996 3228 2037 1719 3399 2862 3419 
3486 3311 1982 3300 2990 2981 2639 2356 2630 
2516 2713 2515 3266 2730 3354 2787 3306 2778 
2716 3412 2774 2050 2771 3247 2022 2745 3413 
3136 2722 2845 3448 2847 3400 3250 3370 3230 
3261 3181 3000 1975 2354 2962 2653 3021 3302 
3344 2597 3392 2648 3372 2641 2594 3373 2707 
3402 2735 2453 2514 2499 2846 3506 3504 3467 
3487 3320 3409 3390 3449 3360 3301 3168 2989 
3330 3161 3171 3210 2969 3200 3191 1413 2003 
2726 2390 3131 3285 3051 1972 2624 2372 2646 
2615 1966 2856 2844 2849 3497 3513 3498 3512 
3478 3458 3505 3439 3468 3499 3489 3429 3410 
3290 3350 3270 3421 3040 3251 3430 3151 3341 
3391 3271 3240 2851 2838 2853 2848 2854 2855 
3503 2857 2858 3514 2859 3515 2860 3516 3507 
2861 3517 2863 3488 3508 2864 3518 2865 3509 
3469 3522 3523 3519 3459 3510 3524 3525 3479 
2866 2867 2882 2883 2868 2869 2884 2885 2870 
2871 2886 2887 2872 2873 2888 2889 2874 2875 
2890 2891 2876 2877 2892 2893 2878 2879 2894 
2895 2880 2881 2896 2897 2898 2899 2914 2915 
2900 2901 2916 2917 2902 2903 2918 2919 2904 
2905 2920 2921 2906 2907 2922 2923 2908 2909 
2924 2925 2910 2911 2926 2927 2912 2913 2928 
2929 2930 2931 2946 2947 2932 2933 2948 2949 
2934 2935 2950 2951 2936 2937 2952 2953 2938 
2939 2954 2955 2940 2941 2956 2957 2959 2958 
2943 2942 2960 2961 2945 2944 3062 3063 3078 
3079 3064 3065 3080 3081 3066 3067 3082 3083 
3068 3069 3084 3085 3070 3071 3086 3087 3592 
3593 3598 3599 3594 3595 3600 3601 3596 3597 
3602 3603 3094 3095 3110 3111 3096 3097 3112 
3113 3098 3099 3114 3115 3100 3101 3116 3117 
3102 3103 3118 3119 3604 3605 3610 3611 3606 
3607 3612 3613 3608 3609 3614 3615 3090 3091 
3120 3121 3088 3089 3108 3109 3076 3077 3106 
3107 3074 3075 3104 3105 3072 3073 3092 3093 
3616 3617 3622 3623 3618 3619 3624 3625 3620 
3621 3626 3627 1752 1831 1758 2793 2307 3425 
1768 2731 2807 2800 1727 2742 2785 2727 1955 
1668 1956 2662 2454 1961 1962 1967 3628 3629 
3634 3635 3630 3631 3636 3637 3632 3633 3638 
3639 3259 2812 1812 3464 2810 3272 2823 2068 
539 3318 3032 2995 3056 2783 3368 3377 2644 
1959 2710 1968 3640 3641 3646 3647 3642 3643 
3648 3649 3644 3645 3650 3651 3446 3339 3185 
2046 2009 2656 3157 3455 2560 3333 3417 3358 
2994 1979 3397 1957 2782 1958 3652 3653 3658 
3659 3654 3655 3660 3661 3656 3657 3662 3663 
2030 2057 3042 3195 3362 3245 3044 2086 2665 
3260 3059 3418 3129 3215 2614 3319 2548 761 
3249 2082 3664 3665 3670 3671 3666 3667 3672 
3673 3668 3669 3674 3675 2089 2221 2375 2490 
3364 2572 2106 2992 3013 2472 2613 3436 3149 
2638 2811 2979 3338 2098 3424 2963 3676 3677 
3682 3683 3679 3685 3684 3678 3686 3681 3680 
3687 2358 2334 2277 2063 2529 2224 2223 2228 
3383 2593 2212 2043 3353 3028 1498 3416 3442 
3198 3688 3689 3694 3695 3690 3691 3696 3697 
3692 3693 3698 3699 2350 2399 2366 2328 2241 
2474 2480 2554 2015 2040 2054 2464 2664 1811 
3264 2081 3443 2243 2767 3700 3701 3706 3707 
3702 3703 3708 3709 3704 3705 3710 3711 2387 
2317 2415 2329 2058 2522 2540 2094 2553 2270 
3025 3296 3203 3163 1983 2045 2391 1817 2822 
3223 2654 3712 3713 3718 3719 3714 3715 3720 
3721 3716 3717 3722 3723 2333 2541 2332 2315 
2345 3283 2240 2215 3182 2406 2600 3237 2091 
2636 3164 2567 3138 1714 2803 3414 3724 3725 
3730 3731 3726 3727 3732 3733 3728 3729 3734 
3735 2525 2383 2462 2273 2325 3192 2246 2539 
2309 2077 2568 2741 2261 3463 2997 2786 2813 
2001 2736 3736 3737 3742 3743 3738 3739 3744 
3745 3740 3741 3746 3747 2414 2478 2523 2473 
2111 2508 2076 2457 2093 3124 3315 2520 3426 
3173 3295 3162 3452 3218 2006 2732 3748 3749 
3754 3755 3750 3751 3756 3757 3752 3753 3758 
3759 2524 2475 2092 2269 3186 2074 2588 2291 
2500 3294 3047 2668 3258 1960 2622 2776 1970 
3760 3761 3766 3767 3762 3763 3768 3769 3764 
3765 3770 3771 2392 2109 2217 2110 2260 2660 
3023 3305 2070 2671 2027 3142 2501 2031 3022 
3146 3435 2768 3277 3772 3773 3774 3775 3777 
3776 2340 2305 2581 2026 3033 2386 2583 2041 
2551 3363 3147 3148 3254 3445 2744 1999 2258 
3444 1773 3778 3779 3784 3785 3780 3781 3786 
3787 3782 3783 3788 3789 2238 2606 2370 2232 
2504 2032 2558 2552 3122 2213 2569 2996 2532 
3017 3156 3243 1753 3434 1802 3385 3790 3791 
3796 3797 3792 3793 3798 3799 3794 3795 3800 
3801 2538 2417 2481 3155 2527 2465 2587 3123 
2640 3039 1998 2579 2000 762 3058 3298 3036 
2754 2780 2708 3802 3803 3808 3809 3804 3805 
3810 3811 3806 3807 3812 3813 2561 2042 2584 
3322 3027 2021 3029 2550 2227 3038 2355 3234 
3208 2530 2777 2717 2965 3814 3815 3820 3821 
3816 3817 3822 3823 3818 3819 3824 3825 2513 
2633 3342 3194 2095 1991 3225 3018 2601 2008 
3453 3007 3386 3008 3268 1963 2761 2740 2733 
2966 3826 3827 3832 3833 3828 3829 3834 3835 
3830 3831 3836 3837 2784 3273 341 2576 3308 
3143 3055 3252 2631 3357 3239 1734 3256 3257 
2469 2450 2596 2723 2621 2739 2967 2970 3838 
3839 3844 3845 3840 3841 3846 3847 3842 3843 
3848 3849 2024 3167 3288 2374 2794 2617 3248 
3328 2792 2804 2982 613 3327 2755 2677 2712 
2971 2968 2991 3850 3851 3856 3857 3852 3853 
3858 3859 3854 3855 3860 3861 2512 2758 2750 
3347 3405 3197 3404 3127 1426 2775 2632 2533 
2084 2661 3011 2709 3031 3041 3862 3863 3868 
3869 3870 3865 3864 3871 3873 3872 3866 3867 
1750 2724 2789 636 2756 3432 3317 2752 2562 
2290 2734 2714 2964 3001 2679 3201 1969 3061 
3325 3874 3875 3880 3881 3876 3877 3882 3883 
3878 3879 3884 3885 3346 2676 3238 2711 2612 
2760 2657 2306 2720 2482 2647 2672 2210 2977 
1971 3211 2322 2467 3231 3291 2590 3331 3886 
3887 3892 3893 3888 3889 3894 3895 3890 3891 
3896 3897 2598 3265 1988 2663 2519 2627 2611 
1984 1978 2675 2974 2035 3321 3381 2518 3411 
3898 3899 3904 3905 3900 3901 3906 3907 3902 
3903 3908 3909 3340 3020 3401 2052 3420 3361 
2634 3371 3220 3441 3141 3351 3241 3150 3461 
2980 3431 3471 3481 3910 3911 3916 3917 3912 
3913 3918 3919 3914 3915 3920 3921 3526 3480 
3450 3451 3527 3520 3528 3490 3460 3529 3500 
3380 3470 3530 3511 3440 3491 3501 3521 3531 
3922 3923 3928 3929 3924 3925 3930 3931 3926 
3927 3932 3933 3532 3533 3548 3549 3534 3535 
3550 3551 3536 3537 3552 3553 3538 3539 3554 
3555 3540 3541 3556 3557 3934 3935 3940 3941 
3936 3937 3942 3943 3938 3939 3944 3945 3564 
3565 3580 3581 3566 3567 3582 3583 3568 3569 
3584 3585 3570 3571 3586 3587 3572 3573 3588 
3589 3946 3947 3952 3953 3948 3949 3954 3955 
3950 3951 3956 3957 3560 3561 3590 3591 3558 
3559 3578 3579 3546 3547 3576 3577 3544 3545 
3574 3575 3542 3543 3562 3563 3958 3959 3964 
3965 3960 3961 3966 3967 3968 3963 3969 3962 

C_[0] 1 3969 double
0 0 0 0 0 0 0 0 0 
0 0 0 0 0 0 0 0 0 
0 0 0 0 0 0 0 0 0 
0 0 0 0 0 0 0 0 0 
0 0 0 0 0 0 0 0 0 
0 0 0 0 0 0 0 0 0 
0 0 0 0 0 0 0 0 0 
0 0 0 0 0 0 0 0 0 
0 0 0 0 0 0 0 0 0 
0 0 0 0 0 0 0 0 0 
0 0 0 0 0 0 0 0 0 
0 0 0 0 0 0 0 0 0 
0.00136245 0.00255017 0.00931446 0.0163479 0.0120013 0.00524762 0.0268018 0.0328857 0.0084103 
0.0223197 0.0174896 0.0397513 0.0122387 0.0167887 0.0478622 0.0690453 0.0903532 0.0307536 
0.0185825 0.0777628 0.0998617 0 0 0 0 0 0 
0 0 0 0 0 0 0.0250898 0.0144912 0.00432648 
0.0084271 0.0365874 0.0390807 0.0605531 0.0573509 0.0513104 0.0697867 0.0792429 0.0964734 
0.0838704 0.11857 0.119331 0.15182 0.134094 0.171226 0.137824 0.180044 0.155851 
0 0 0 0 0 0 0 0 0 