# vtk DataFile Version 3.0
Generated by LAMMPS
ASCII
DATASET POLYDATA
POINTS 3969 float
-0.607843 -0.607843 0 -0.588235 -0.607843 0 -0.607843 -0.588235 0 
-0.588235 -0.588235 0 -0.568627 -0.607843 0 -0.54902 -0.607843 0 
-0.568627 -0.588235 0 -0.54902 -0.588235 0 -0.529412 -0.607843 0 
-0.509804 -0.607843 0 -0.529412 -0.588235 0 -0.509804 -0.588235 0 
-0.490196 -0.607843 0 -0.470588 -0.607843 0 -0.490196 -0.588235 0 
-0.470588 -0.588235 0 -0.45098 -0.607843 0 -0.431373 -0.607843 0 
-0.45098 -0.588235 0 -0.431373 -0.588235 0 -0.411765 -0.607843 0 
-0.392157 -0.607843 0 -0.411765 -0.588235 0 -0.392157 -0.588235 0 
-0.372549 -0.607843 0 -0.352941 -0.607843 0 -0.372549 -0.588235 0 
-0.352941 -0.588235 0 -0.333333 -0.607843 0 -0.313726 -0.607843 0 
-0.333333 -0.588235 0 -0.313726 -0.588235 0 -0.607843 -0.568627 0 
-0.588235 -0.568627 0 -0.607843 -0.54902 0 -0.588235 -0.54902 0 
-0.568627 -0.568627 0 -0.54902 -0.568627 0 -0.568627 -0.54902 0 
-0.54902 -0.54902 0 -0.529412 -0.568627 0 -0.509804 -0.568627 0 
-0.529412 -0.54902 0 -0.509804 -0.54902 0 -0.490196 -0.568627 0 
-0.470588 -0.568627 0 -0.490196 -0.54902 0 -0.470588 -0.54902 0 
-0.45098 -0.568627 0 -0.431373 -0.568627 0 -0.45098 -0.54902 0 
-0.431373 -0.54902 0 -0.411765 -0.568627 0 -0.392157 -0.568627 0 
-0.411765 -0.54902 0 -0.392157 -0.54902 0 -0.372549 -0.568627 0 
-0.352941 -0.568627 0 -0.352941 -0.54902 0 -0.372549 -0.54902 0 
-0.333333 -0.568627 0 -0.313726 -0.568627 0 -0.313726 -0.54902 0 
-0.333333 -0.54902 0 -0.607843 -0.529412 0 -0.588235 -0.529412 0 
-0.607843 -0.509804 0 -0.588235 -0.509804 0 -0.568627 -0.529412 0 
-0.54902 -0.529412 0 -0.568627 -0.509804 0 -0.54902 -0.509804 0 
-0.529412 -0.529412 0 -0.509804 -0.529412 0 -0.529412 -0.509804 0 
-0.509804 -0.509804 0 -0.470588 -0.509804 0 -0.490196 -0.509804 0 
-0.470588 -0.529412 0 -0.490196 -0.529412 0 -0.431373 -0.509804 0 
-0.45098 -0.509804 0 -0.431373 -0.529412 0 -0.45098 -0.529412 0 
-0.392157 -0.509804 0 -0.411765 -0.509804 0 -0.392157 -0.529412 0 
-0.411765 -0.529412 0 -0.352941 -0.509804 0 -0.372549 -0.509804 0 
-0.352941 -0.529412 0 -0.372549 -0.529412 0 -0.313726 -0.509804 0 
-0.333333 -0.509804 0 -0.313726 -0.529412 0 -0.333333 -0.529412 0 
-0.607843 -0.490196 0 -0.588235 -0.490196 0 -0.607843 -0.470588 0 
-0.588235 -0.470588 0 -0.568627 -0.490196 0 -0.54902 -0.490196 0 
-0.568627 -0.470588 0 -0.54902 -0.470588 0 -0.529412 -0.490196 0 
-0.509804 -0.490196 0 -0.529412 -0.470588 0 -0.509804 -0.470588 0 
-0.5 -0.491844 0 -0.481016 -0.5 0 -0.485079 -0.473765 0 
-0.465757 -0.472739 0 -0.463105 -0.485015 0 -0.454798 -0.498026 0 
-0.437568 -0.476342 0 -0.431708 -0.5 0 -0.426307 -0.48188 0 
-0.409788 -0.495417 0 -0.41681 -0.467174 0 -0.400866 -0.473175 0 
-0.389253 -0.499609 0 -0.365758 -0.496959 0 -0.384515 -0.47925 0 
-0.368864 -0.469703 0 -0.351815 -0.489114 0 -0.353133 -0.467182 0 
-0.33329 -0.499464 0 -0.33526 -0.475422 0 -0.313674 -0.49502 0 
-0.321261 -0.470009 0 -0.607843 -0.45098 0 -0.588235 -0.45098 0 
-0.607843 -0.431373 0 -0.588235 -0.431373 0 -0.568627 -0.45098 0 
-0.54902 -0.45098 0 -0.568627 -0.431373 0 -0.54902 -0.431373 0 
-0.529412 -0.45098 0 -0.509804 -0.45098 0 -0.529412 -0.431373 0 
-0.509804 -0.431373 0 -0.474128 -0.454181 0 -0.488961 -0.443196 0 
-0.5 -0.46314 0 -0.5 -0.428559 0 -0.474381 -0.426251 0 
-0.450696 -0.46237 0 -0.46311 -0.439675 0 -0.444865 -0.440805 0 
-0.431286 -0.451807 0 -0.430636 -0.424726 0 -0.415849 -0.440922 0 
-0.401091 -0.448751 0 -0.402938 -0.423979 0 -0.387281 -0.431822 0 
-0.384162 -0.456982 0 -0.371408 -0.442834 0 -0.355873 -0.44381 0 
-0.344014 -0.42556 0 -0.338999 -0.45012 0 -0.326436 -0.425276 0 
-0.32366 -0.446111 0 -0.607843 -0.411765 0 -0.588235 -0.411765 0 
-0.607843 -0.392157 0 -0.588235 -0.392157 0 -0.568627 -0.411765 0 
-0.54902 -0.411765 0 -0.568627 -0.392157 0 -0.54902 -0.392157 0 
-0.529412 -0.411765 0 -0.509804 -0.411765 0 -0.529412 -0.392157 0 
-0.509804 -0.392157 0 -0.486772 -0.411754 0 -0.497699 -0.391368 0 
-0.473097 -0.398422 0 -0.445824 -0.417573 0 -0.460743 -0.411014 0 
-0.43628 -0.399053 0 -0.41678 -0.411849 0 -0.421544 -0.389064 0 
-0.404236 -0.397049 0 -0.389201 -0.404391 0 -0.375574 -0.415473 0 
-0.369505 -0.391642 0 -0.359443 -0.418275 0 -0.351609 -0.399003 0 
-0.33511 -0.403693 0 -0.319068 -0.387793 0 -0.315084 -0.407591 0 
-0.607843 -0.372549 0 -0.588235 -0.372549 0 -0.607843 -0.352941 0 
-0.588235 -0.352941 0 -0.568627 -0.372549 0 -0.54902 -0.372549 0 
-0.568627 -0.352941 0 -0.54902 -0.352941 0 -0.529412 -0.372549 0 
-0.509804 -0.372549 0 -0.529412 -0.352941 0 -0.509804 -0.352941 0 
-0.477943 -0.378701 0 -0.49185 -0.363805 0 -0.471228 -0.360926 0 
-0.460085 -0.382468 0 -0.445236 -0.383716 0 -0.442199 -0.354362 0 
-0.456038 -0.352041 0 -0.432103 -0.368512 0 -0.398926 -0.374696 0 
-0.413444 -0.36819 0 -0.422473 -0.347275 0 -0.393313 -0.353256 0 
-0.38277 -0.38142 0 -0.377001 -0.359005 0 -0.364849 -0.349373 0 
-0.360228 -0.374843 0 -0.339115 -0.382114 0 -0.347809 -0.363137 0 
-0.331844 -0.348504 0 -0.324852 -0.368454 0 -0.31289 -0.349605 0 
-0.607843 -0.333333 0 -0.588235 -0.333333 0 -0.607843 -0.313726 0 
-0.588235 -0.313726 0 -0.568627 -0.333333 0 -0.54902 -0.333333 0 
-0.568627 -0.313726 0 -0.54902 -0.313726 0 -0.529412 -0.333333 0 
-0.509804 -0.333333 0 -0.529412 -0.313726 0 -0.509804 -0.313726 0 
-0.496757 -0.342785 0 -0.476155 -0.340862 0 -0.479828 -0.320725 0 
-0.499245 -0.315959 0 -0.463092 -0.32962 0 -0.443703 -0.325666 0 
-0.447979 -0.309082 0 -0.428888 -0.330272 0 -0.406081 -0.341233 0 
-0.412052 -0.318088 0 -0.396587 -0.311442 0 -0.389308 -0.331374 0 
-0.374566 -0.327601 0 -0.358173 -0.323514 0 -0.331472 -0.32571 0 
-0.314815 -0.329566 0 -0.348257 -0.339565 0 -0.344388 -0.310436 0 
-0.607843 -0.294118 0 -0.588235 -0.294118 0 -0.607843 -0.27451 0 
-0.588235 -0.27451 0 -0.568627 -0.294118 0 -0.54902 -0.294118 0 
-0.568627 -0.27451 0 -0.54902 -0.27451 0 -0.529412 -0.294118 0 
-0.509804 -0.294118 0 -0.529412 -0.27451 0 -0.509804 -0.27451 0 
-0.494915 -0.280415 0 -0.47708 -0.281408 0 -0.4829 -0.299264 0 
-0.465913 -0.30446 0 -0.438219 -0.269031 0 -0.462682 -0.274607 0 
-0.450334 -0.288185 0 -0.432442 -0.290087 0 -0.415272 -0.274627 0 
-0.397134 -0.271884 0 -0.407938 -0.292408 0 -0.38827 -0.292268 0 
-0.424552 -0.305266 0 -0.370323 -0.278297 0 -0.352583 -0.276414 0 
-0.360564 -0.297637 0 -0.375475 -0.304559 0 -0.328577 -0.273201 0 
-0.338925 -0.290109 0 -0.313989 -0.289913 0 -0.324612 -0.304663 0 
-0.607843 -0.254902 0 -0.588235 -0.254902 0 -0.607843 -0.235294 0 
-0.588235 -0.235294 0 -0.568627 -0.254902 0 -0.54902 -0.254902 0 
-0.568627 -0.235294 0 -0.54902 -0.235294 0 -0.529412 -0.254902 0 
-0.509804 -0.254902 0 -0.529412 -0.235294 0 -0.509804 -0.235294 0 
-0.46904 -0.255876 0 -0.479094 -0.247415 0 -0.496787 -0.253541 0 
-0.448975 -0.253648 0 -0.43813 -0.239589 0 -0.457323 -0.232387 0 
-0.424071 -0.258751 0 -0.411404 -0.244006 0 -0.39726 -0.248645 0 
-0.38176 -0.265345 0 -0.358616 -0.2553 0 -0.372858 -0.245166 0 
-0.386409 -0.232909 0 -0.350405 -0.236109 0 -0.339821 -0.258478 0 
-0.332596 -0.237885 0 -0.318973 -0.249216 0 -0.310405 -0.268925 0 
-0.607843 -0.215686 0 -0.588235 -0.215686 0 -0.607843 -0.196078 0 
-0.588235 -0.196078 0 -0.568627 -0.215686 0 -0.54902 -0.215686 0 
-0.568627 -0.196078 0 -0.54902 -0.196078 0 -0.529412 -0.215686 0 
-0.509804 -0.215686 0 -0.529412 -0.196078 0 -0.509804 -0.196078 0 
-0.494946 -0.229776 0 -0.470504 -0.224693 0 -0.475684 -0.210306 0 
-0.476584 -0.194547 0 -0.499724 -0.209487 0 -0.424924 -0.228024 0 
-0.443751 -0.215337 0 -0.452705 -0.203188 0 -0.425723 -0.205589 0 
-0.408483 -0.221142 0 -0.392941 -0.214373 0 -0.410718 -0.19626 0 
-0.392908 -0.1926 0 -0.366044 -0.224402 0 -0.37468 -0.207885 0 
-0.357639 -0.195043 0 -0.349666 -0.212632 0 -0.332422 -0.216469 0 
-0.333731 -0.196494 0 -0.313468 -0.192803 0 -0.314931 -0.221334 0 
-0.607843 -0.176471 0 -0.588235 -0.176471 0 -0.607843 -0.156863 0 
-0.588235 -0.156863 0 -0.568627 -0.176471 0 -0.54902 -0.176471 0 
-0.568627 -0.156863 0 -0.54902 -0.156863 0 -0.529412 -0.176471 0 
-0.509804 -0.176471 0 -0.529412 -0.156863 0 -0.509804 -0.156863 0 
-0.470199 -0.176487 0 -0.490431 -0.181023 0 -0.488289 -0.163167 0 
-0.43344 -0.188311 0 -0.454123 -0.184672 0 -0.43822 -0.168482 0 
-0.457089 -0.161035 0 -0.417129 -0.176022 0 -0.398835 -0.173067 0 
-0.424299 -0.156611 0 -0.402604 -0.152067 0 -0.375596 -0.186565 0 
-0.364408 -0.171795 0 -0.384733 -0.162434 0 -0.34715 -0.17785 0 
-0.326726 -0.179718 0 -0.339145 -0.157902 0 -0.322134 -0.156998 0 
-0.607843 -0.137255 0 -0.588235 -0.137255 0 -0.607843 -0.117647 0 
-0.588235 -0.117647 0 -0.568627 -0.137255 0 -0.54902 -0.137255 0 
-0.568627 -0.117647 0 -0.54902 -0.117647 0 -0.529412 -0.137255 0 
-0.509804 -0.137255 0 -0.529412 -0.117647 0 -0.509804 -0.117647 0 
-0.492619 -0.148238 0 -0.463838 -0.147601 0 -0.46657 -0.134343 0 
-0.481625 -0.123331 0 -0.496911 -0.125865 0 -0.439003 -0.144739 0 
-0.440405 -0.129349 0 -0.450304 -0.114225 0 -0.415347 -0.137482 0 
-0.38988 -0.138116 0 -0.421323 -0.120328 0 -0.399723 -0.122182 0 
-0.372104 -0.149158 0 -0.353391 -0.152347 0 -0.360352 -0.131453 0 
-0.374976 -0.123244 0 -0.343998 -0.126542 0 -0.329195 -0.132839 0 
-0.312524 -0.138173 0 -0.312003 -0.116999 0 -0.607843 -0.0980392 0 
-0.588235 -0.0980392 0 -0.607843 -0.0784314 0 -0.588235 -0.0784314 0 
-0.568627 -0.0980392 0 -0.54902 -0.0980392 0 -0.568627 -0.0784314 0 
-0.54902 -0.0784314 0 -0.529412 -0.0980392 0 -0.509804 -0.0980392 0 
-0.529412 -0.0784314 0 -0.509804 -0.0784314 0 -0.467123 -0.110009 0 
-0.480221 -0.0914841 0 -0.493889 -0.100697 0 -0.430474 -0.10461 0 
-0.462408 -0.0916995 0 -0.44201 -0.0930733 0 -0.435086 -0.0769585 0 
-0.406619 -0.102966 0 -0.412699 -0.0871746 0 -0.392673 -0.0862808 0 
-0.385212 -0.107508 0 -0.354735 -0.105341 0 -0.369221 -0.0989763 0 
-0.375071 -0.0780578 0 -0.332043 -0.110323 0 -0.344619 -0.0914088 0 
-0.32225 -0.0950046 0 -0.31352 -0.0801091 0 -0.607843 -0.0588235 0 
-0.588235 -0.0588235 0 -0.607843 -0.0392157 0 -0.588235 -0.0392157 0 
[...]
POINT_DATA 3969
FIELD FieldData 5
id 1 3969 int
161 162 167 168 163 164 169 170 165 
166 171 172 107 108 123 124 109 110 
125 126 111 112 127 128 113 114 129 
130 115 116 131 132 173 174 179 180 
175 176 181 182 177 178 183 184 139 
140 155 156 141 142 157 158 143 144 
159 160 145 146 153 154 147 148 151 
152 185 186 191 192 187 188 193 194 
189 190 195 196 119 120 149 150 117 
118 137 138 105 106 135 136 103 104 
133 134 101 102 121 122 197 198 203 
204 199 200 205 206 201 202 207 208 
1013 1015 1499 2242 1019 1021 2628 1023 2645 
2470 1732 771 1411 2483 54 2799 263 621 
2546 642 2728 3229 209 210 215 216 211 
212 217 218 213 214 219 220 2788 1016 
1009 9 623 1759 1779 280 1832 1504 3387 
1808 519 1029 65 334 27 584 779 1608 
83 221 222 227 228 223 224 229 230 
225 226 231 232 622 1803 1780 1774 531 
770 1790 1307 379 640 574 1277 1044 1069 
1674 1296 1596 233 234 239 240 235 236 
241 242 237 238 243 244 292 1798 1775 
1816 1793 1809 62 759 1580 1126 85 1354 
1682 1298 1581 1381 1148 1093 1573 1125 283 
245 246 251 252 247 248 253 254 249 
250 255 256 1529 610 571 2487 1665 1683 
73 1602 1691 562 1535 1094 1259 325 1632 
1102 345 1117 407 408 413 414 409 410 
415 416 411 412 417 418 1776 1046 1794 
632 1276 13 791 1076 88 1263 1339 1310 
1486 1401 1492 1138 1124 1105 1357 1446 1538 
419 420 425 426 421 422 427 428 423 
424 429 430 1646 2790 1592 586 344 354 
1043 1519 1265 1294 1386 1387 1131 1328 1416 
1341 1569 1286 431 432 437 438 433 434 
439 440 435 436 441 442 614 390 369 
2531 1017 503 19 33 1324 1252 1643 1151 
1290 1456 1524 1431 1317 1348 1331 1330 1302 
443 444 449 450 445 446 451 452 447 
448 453 454 2769 2753 96 1101 792 1657 
320 1109 1153 1129 1266 1275 1372 1139 1343 
1347 1362 1329 455 456 461 462 457 458 
463 464 459 460 465 466 655 260 2748 
86 1022 1395 570 540 1088 1104 556 1267 
1371 1400 1344 1359 1358 1346 1345 1374 467 
468 473 474 469 470 475 476 471 472 
477 478 564 1778 1058 1576 611 1099 43 
313 333 1597 1305 1455 1482 1121 1555 1373 
1572 1541 479 480 485 486 481 482 487 
488 483 484 489 490 2738 782 1020 654 
36 1293 1614 1745 1051 1452 1110 1453 1295 
1496 1325 355 1118 1423 1119 1321 1320 1133 
491 492 493 494 495 496 1012 1725 7 
1730 554 612 330 1610 1588 1501 1599 1084 
1135 1147 506 1257 381 592 657 658 663 
664 659 660 665 666 661 662 667 668 
644 590 1018 400 1782 781 1815 270 542 
1640 1091 1059 1647 1261 1090 1092 1396 1152 
1645 669 670 675 676 671 672 677 678 
673 674 679 680 1763 2471 1143 312 520 
1081 1598 301 2806 1560 1651 1637 1593 1323 
314 1556 1551 1140 1253 681 682 687 688 
683 684 689 690 685 686 691 692 2674 
1618 34 2034 2658 2706 560 63 550 1830 
1791 1438 1633 1532 1656 523 1483 304 1689 
534 1586 693 694 699 700 695 696 701 
702 697 698 703 704 2725 1770 1487 1622 
2721 2770 396 1611 1368 1338 1547 1543 555 
1688 1264 1108 1521 1087 1369 1141 705 706 
711 712 707 708 713 714 709 710 715 
716 1814 1784 501 1726 1761 1728 2517 392 
1813 545 2802 510 1639 1155 55 45 1063 
1107 1049 717 718 723 724 719 720 725 
726 721 722 727 728 1577 646 2 1 
1533 53 1986 331 1661 1797 380 1735 1672 
1792 530 275 1795 97 282 729 730 735 
736 731 732 737 738 733 734 739 740 
1652 1729 21 1738 302 2678 1787 2018 1590 
1484 1764 66 1743 633 1760 1398 1041 1062 
741 742 747 748 743 744 749 750 745 
746 751 752 1014 4 31 41 61 1786 
5 6 11 1756 1742 1769 1680 772 581 
1054 1080 261 521 1800 1762 1749 913 914 
919 920 915 916 921 922 917 918 923 
924 257 1677 91 2610 1620 1664 1741 1531 
1650 512 1518 1767 1783 532 1687 391 361 
1744 48 925 926 931 932 927 928 933 
934 929 930 935 936 1693 357 596 507 
2580 1383 71 1723 1098 2564 594 1675 1503 
8 1746 1038 2547 553 1514 937 938 943 
944 939 940 945 946 941 942 947 948 
2066 547 1026 597 647 397 1128 317 1033 
20 1558 1607 1559 1397 1673 22 514 1563 
1621 1578 949 950 955 956 951 952 957 
958 953 954 959 960 577 753 783 793 
557 527 72 348 617 327 627 537 297 
587 598 1028 10 377 1112 961 962 967 
968 963 964 969 970 965 966 971 972 
774 803 833 558 843 813 814 844 773 
784 845 754 823 804 846 847 764 834 
848 973 974 979 980 975 976 981 982 
977 978 983 984 859 860 875 876 861 
862 877 878 863 864 879 880 865 866 
881 882 867 868 883 884 985 986 991 
992 987 988 993 994 989 990 995 996 
891 892 907 908 893 894 909 910 895 
896 911 912 897 898 905 906 899 900 
903 904 997 998 1003 1004 999 1000 1005 
1006 1001 1002 1007 1008 871 872 901 902 
869 870 889 890 857 858 887 888 855 
856 885 886 873 854 853 874 1159 1160 
1174 1175 1161 1162 1176 1177 1163 1164 1178 
1179 1165 1166 1180 1181 1167 1168 1182 1183 
1169 1170 1184 1185 1171 1172 1186 1187 1173 
1188 1189 1190 1204 1205 1191 1192 1206 1207 
1193 1194 1208 1209 1195 1196 1210 1211 1197 
1198 1212 1213 1199 1200 1214 1215 1201 1202 
1216 1217 1203 1218 1219 1220 1234 1235 1221 
1222 1236 1237 1223 1224 1238 1239 1225 1226 
1240 1241 1227 1228 1242 1243 1229 1230 1244 
1245 1231 1232 1246 1247 1233 1248 370 1818 
652 1788 1158 3374 1064 3462 1748 582 84 
780 2781 559 1308 1992 2818 801 1810 2795 
2808 2715 1833 2821 82 600 1777 3384 768 
499 382 1658 1425 271 1737 1591 375 758 
1073 1067 1642 342 1826 812 651 1827 1306 
1513 14 339 403 26 516 1024 1096 589 
1824 790 2796 802 2534 89 1095 522 1292 
366 50 552 1516 1546 336 1260 1628 1045 
767 1146 1156 1550 1127 1627 266 1410 1071 
99 1648 1717 265 757 303 566 799 1100 
1669 1520 1567 1089 1477 406 1445 1409 1507 
343 1511 1540 1144 1625 395 376 1061 1086 
49 573 513 67 1502 1353 524 1736 290 
259 2836 268 356 1554 285 1342 1568 1384 
1122 1415 1327 1603 1301 1315 1316 1424 1356 
525 1522 1313 1366 1571 1552 1582 335 262 
1718 509 1663 70 620 289 399 349 93 
1314 1370 1349 1285 1287 1271 1270 1601 1350 
1458 1367 1299 1585 1429 1594 1380 1337 1553 
1280 1116 1103 1322 2274 498 533 329 789 
2819 1050 1485 28 1318 1332 1364 1333 1407 
1406 1393 1334 1379 1421 1451 1449 1355 1312 
1490 1570 1085 1542 363 276 264 1309 535 
402 1068 39 1060 3309 1785 822 3209 1106 
1392 1378 1377 1363 1376 1420 1391 1404 1405 
1403 1390 1481 1340 1272 1422 405 1526 1251 
1527 78 502 583 1804 593 1641 798 1561 
12 3303 778 1375 1360 1432 1389 1447 1361 
1402 1388 1448 1418 1436 1494 1434 1303 1300 
1268 1587 383 1606 1249 561 606 75 1056 
504 585 549 528 579 788 309 64 1493 
1417 1509 1539 1523 1433 1508 1480 1408 1443 
1435 1256 1505 1414 1352 1536 305 316 1055 
624 79 1805 1626 777 17 800 307 319 
1441 1478 1510 1137 1479 1495 1419 1450 1442 
1288 1255 1311 1474 1557 1679 1604 1615 1721 
77 1690 1589 269 569 1823 1459 1460 3454 
1579 1461 1120 1437 1525 1336 1394 1274 1273 
1440 1326 1335 1497 1154 386 1584 656 29 
1530 518 1462 1466 1463 1464 1467 1468 1465 
1469 1134 1281 1304 1136 1512 1289 1150 1534 
1254 1319 1283 326 1624 1279 626 1130 1053 
1036 401 810 1470 1471 1472 1473 1537 1365 
1149 1258 1351 1291 1282 1269 1284 1457 1075 
286 306 1040 1132 1074 299 602 353 1694 
1695 1699 1822 809 1696 1697 1700 1701 1698 
1702 1262 284 1489 1612 1491 1385 1476 1660 
1635 1113 1644 296 1629 1382 1145 544 1636 
59 1703 1707 2840 756 811 24 1704 1705 
1708 1709 1706 1710 1616 1565 1574 1506 1430 
1297 1475 60 1609 394 1564 315 56 1048 
1427 615 1751 1617 1684 1595 1843 619 373 
1711 1712 1820 1862 1713 1828 2830 819 1070 
1114 575 90 1428 505 546 1631 384 374 
37 565 404 46 340 322 625 1077 1072 
1082 295 2423 310 298 599 609 2852 1841 
832 1123 1399 515 1600 1115 601 1662 311 
365 1613 364 1250 1444 68 1562 603 595 
1766 352 1655 372 81 497 1638 1025 2831 
630 808 1848 653 346 30 2805 500 760 
1042 350 1039 1157 1634 526 385 511 1528 
635 272 47 2595 1747 2578 1733 1011 100 
1649 92 1083 23 588 3502 1821 797 2839 
44 76 1566 1605 38 1079 1678 591 576 
1575 1066 1111 634 57 1583 293 294 1454 
1654 1653 1623 536 324 1037 267 300 1097 
1844 538 821 796 321 1796 1549 40 1142 
643 87 1078 1057 360 1685 1781 371 1544 
332 1548 604 563 1722 1724 2338 1052 1630 
42 650 32 308 578 830 2843 1819 58 
1801 1765 551 98 1715 273 274 541 616 
1716 1771 69 1412 1754 2629 2503 1670 362 
543 15 1676 1666 1030 18 378 288 639 
548 787 2835 820 393 1772 1739 1731 80 
1740 1755 1659 1686 323 1671 1545 3 1032 
1692 1010 287 328 629 278 755 766 618 
816 806 828 1840 1838 1065 1027 1517 1488 
1035 605 1500 1720 1515 1031 1278 1667 1681 
387 1034 52 1047 367 277 567 318 568 
649 608 815 776 817 807 818 1845 2841 
1852 2842 25 51 638 517 398 16 508 
337 607 347 368 648 775 338 358 637 
628 805 765 786 839 840 841 831 842 
1836 1835 1842 1839 2850 763 794 850 849 
795 824 851 835 852 785 1849 825 1850 
836 1851 826 837 1853 827 1854 838 1855 
829 1857 1856 1834 1858 1859 1837 1860 1861 
1863 1864 1865 1879 1880 1866 1867 1881 1882 
1868 1869 1883 1884 1870 1871 1885 1886 1872 
1873 1887 1888 1874 1875 1889 1890 1876 1877 
1891 1892 1878 1893 1894 1895 1909 1910 1896 
1897 1911 1912 1898 1899 1913 1914 1900 1901 
1915 1916 1902 1903 1917 1918 1904 1905 1919 
1920 1906 1907 1921 1922 1908 1923 1924 1925 
1939 1940 1926 1927 1941 1942 1928 1929 1943 
1944 1930 1931 1945 1946 1932 1933 1947 1948 
1934 1935 1949 1950 1951 1936 1937 1952 1953 
1938 2114 2115 2130 2131 2116 2117 2132 2133 
2118 2119 2134 2135 2120 2121 2136 2137 2122 
2123 2138 2139 2124 2125 2140 2141 2126 2127 
2142 2143 2128 2129 2144 2145 2146 2147 2162 
2163 2148 2149 2164 2165 2150 2151 2166 2167 
2152 2153 2168 2169 2154 2155 2170 2171 2156 
2157 2172 2173 2158 2159 2174 2175 2160 2161 
2176 2177 2178 2179 2194 2195 2180 2181 2196 
2197 2182 2183 2198 2199 2184 2185 2200 2201 
2186 2187 2202 2203 2188 2189 2204 2205 2190 
2191 2206 2207 2192 2193 2208 2209 1954 74 
631 281 1799 2984 3348 3137 2814 1829 3482 
2743 641 3406 3278 389 3388 1807 2779 291 
3433 2053 3367 769 3188 2765 2791 3299 94 
645 351 279 2998 1439 359 2051 3269 3369 
2651 3334 2544 2815 2592 2650 1806 2455 3378 
2816 3130 2801 3255 3279 3010 2012 3474 1973 
3473 2828 2988 3253 3472 2373 580 258 529 
1619 35 2837 1980 3407 95 2418 3447 1847 
2371 2635 2565 2985 2729 3125 2259 3133 2036 
3284 3165 2757 2010 3004 3226 3145 2497 2039 
2044 3035 3312 1789 3415 3048 3475 2826 3359 
2834 2502 3242 3144 2038 2014 3316 3326 2323 
2028 3187 3213 2599 2506 3134 2496 3282 2357 
2112 2321 2574 2342 2101 2825 3049 2975 3174 
3050 3003 1987 3054 2419 3214 2528 2239 2017 
2016 2555 3183 2047 2075 3244 2283 2352 2308 
2262 2557 2235 2401 3292 2521 2403 3132 2073 
2100 3204 2421 2623 3154 3345 2829 2669 3398 
3015 2763 2563 3267 3135 2368 2301 2510 3045 
2285 2284 2088 2266 2234 2250 2393 2336 2282 
2280 2302 2218 2300 2494 2314 2067 3492 1989 
2972 2625 3246 3034 3216 3014 3403 2559 2591 
2288 2341 2542 2320 2351 2324 2236 2458 2231 
2248 2249 2310 2394 2295 2265 2313 3158 3483 
3389 3060 2772 2020 3352 2275 2359 2005 3323 
2420 2319 2479 2254 2585 2252 2267 2410 2279 
2233 2427 2426 2264 2395 2281 2296 2311 2343 
3427 3159 2986 3160 2643 1846 3227 2271 2384 
2718 2113 1965 2229 2060 2416 2292 2511 2219 
2353 2566 2379 2411 2346 2412 2380 2378 2377 
2347 2364 2360 2327 2361 2330 388 1994 3465 
2618 2226 3169 3456 2099 2407 3276 2602 2526 
3262 2303 2102 2396 2247 2362 2397 2428 2413 
2348 2349 2315 2344 2331 2316 3437 3030 2430 
2431 2432 1757 2433 2434 2983 3289 2029 2973 
3365 3349 2670 2577 2062 3205 2025 2255 2214 
2069 3233 2326 2381 2294 2460 2363 2365 2382 
2398 2478 2462 2388 2493 2435 2436 2440 2441 
2437 2438 2442 2443 2439 2444 2824 3476 2535 
2007 3126 2616 2762 2335 2408 2369 2461 2107 
2459 2286 2422 2429 2389 2476 2509 2491 2475 
2473 2445 2446 2447 2448 2449 3139 3221 3206 
2817 2537 2211 2571 2061 2404 2055 2253 2489 
2477 2492 2278 2409 2376 2524 2392 2680 2681 
2686 2687 2682 2683 2688 2689 2684 2685 2690 
1976 3466 2659 3016 3393 3297 3236 2004 2505 
2463 2586 2251 2589 2402 2263 2237 2090 2217 
2110 2340 2104 2260 2691 2692 2696 2697 2693 
2694 2698 2699 3484 2695 2700 3140 2649 3176 
2673 3337 3235 2582 3202 2087 3153 3002 3222 
2105 2507 2304 2268 2287 2238 2216 2305 2701 
2702 2705 3485 2833 2832 1825 2703 2704 3178 
3438 3189 2339 2019 2609 3375 3175 1997 2244 
2071 2575 2385 3274 2245 2059 2049 2064 3232 
2220 2495 2370 2232 2481 2538 2827 3457 3495 
3408 3280 3199 2987 2978 2002 3053 2485 2759 
3287 3275 3207 2545 2097 3332 3193 2080 2570 
2048 2225 3324 2276 3314 2561 2573 2056 3155 
3170 3496 3179 3329 3009 1981 1974 3304 2486 
2033 2746 3335 3423 3217 3024 2766 2256 3052 
2289 2556 2072 2230 3006 2065 2085 3184 3263 
3293 2042 3342 2652 2083 2513 3310 3477 3190 
3379 1990 2666 2549 2498 3286 3382 2466 2737 
3037 2011 2013 3422 2719 2023 2603 3019 2993 
3313 3172 2608 3224 2257 3152 3273 3194 2079 
3219 3493 1985 3494 1977 2619 2468 3180 2488 
2484 2452 3336 3376 3395 3366 2747 572 3394 
2820 3026 3177 3396 2543 2604 2536 3046 1993 
341 2798 3167 2024 2078 3428 3281 3399 2999 
2990 2655 3311 2642 2667 3196 2630 2749 2451 
3266 2751 3356 3166 2787 1964 1995 2773 2764 
2037 3355 1719 3228 1996 2620 3288 2862 3419 
3486 3300 1982 2356 3250 2981 2639 2354 3181 
2516 2713 2515 2730 3354 3306 3372 2778 2716 
3412 2774 2050 2771 3247 2022 3307 2745 3413 
3136 2722 1750 2758 2845 3448 2847 3506 3400 
3370 3230 3409 3261 3000 1975 3301 2962 2653 
3021 3344 3302 2597 3392 2648 2641 2594 3373 
2707 3402 2514 2499 2676 2735 2453 3346 2846 
3504 3467 3487 3320 3390 3449 3360 3458 3168 
2989 3330 3161 3200 3171 3210 2969 3191 1413 
2726 2003 2390 3131 3285 3051 1972 2624 2372 
2646 2615 1966 2856 2844 2849 3497 3513 3498 
3512 3478 3505 3439 3468 3499 3489 3429 3410 
3290 3350 3270 3040 3421 3251 3430 3151 3341 
3391 3271 3240 2851 2838 2853 2848 2854 2855 
3503 2857 3514 2858 2859 3515 3516 2860 3507 
2861 3517 2863 3488 3508 2864 3518 2865 3509 
3469 3522 3523 3519 3459 3510 3524 3525 3479 
2866 2867 2882 2883 2868 2869 2884 2885 2870 
2871 2886 2887 2872 2873 2888 2889 2874 2875 
2890 2891 2876 2877 2892 2893 2878 2879 2894 
2895 2880 2881 2896 2897 2898 2899 2914 2915 
2900 2901 2916 2917 2902 2903 2918 2919 2904 
2905 2920 2921 2906 2907 2922 2923 2908 2909 
2924 2925 2910 2911 2926 2927 2912 2913 2928 
2929 2930 2931 2946 2947 2932 2933 2948 2949 
2934 2935 2950 2951 2936 2937 2952 2953 2938 
2939 2954 2955 2940 2941 2956 2957 2959 2958 
2943 2942 2945 2960 2961 2944 3062 3063 3078 
3079 3064 3065 3080 3081 3066 3067 3082 3083 
3068 3069 3084 3085 3070 3071 3086 3087 3592 
3593 3598 3599 3594 3595 3600 3601 3596 3597 
3602 3603 3094 3095 3110 3111 3096 3097 3112 
3113 3098 3099 3114 3115 3100 3101 3116 3117 
3102 3103 3118 3119 3604 3605 3610 3611 3606 
3607 3612 3613 3608 3609 3614 3615 3090 3091 
3120 3121 3088 3089 3108 3109 3076 3077 3106 
3107 3074 3075 3104 3105 3072 3073 3092 3093 
3616 3617 3622 3623 3618 3619 3624 3625 3620 
3621 3626 3627 1752 1758 3128 2797 2976 2793 
1831 1768 2731 3425 2807 1727 2742 2800 2785 
2727 1955 1956 1668 2454 1961 1962 1967 3628 
3629 3634 3635 3630 3631 3636 3637 3632 3633 
3638 3639 2637 2809 2605 3464 2812 3259 2307 
3272 2810 2823 3318 539 2995 3056 2783 2662 
2644 2710 1968 3640 3641 3646 3647 3642 3643 
3648 3649 3644 3645 3650 3651 3012 2626 3057 
2607 3343 1812 3185 3446 2009 2068 3157 3032 
3368 1959 3377 1957 1958 3652 3653 3658 3659 
3654 3655 3660 3661 3656 3657 3662 3663 2108 
3005 3212 2424 2272 3043 2030 3339 2057 2046 
3455 2656 2560 3358 3417 1979 3397 2994 2782 
2548 3664 3665 3670 3671 3666 3667 3672 3673 
3668 3669 3674 3675 2222 2103 2425 2096 2337 
3195 3042 2089 3245 3362 2665 2086 3333 3129 
3215 3260 2614 3319 2082 3249 2963 3676 3677 
3682 3683 3678 3679 3685 3684 3686 3681 3687 
3680 2405 2367 2456 2293 2375 2490 2221 2106 
3364 3044 3059 3418 3149 3442 3338 761 2098 
3688 3689 3694 3695 3690 3691 3696 3697 3692 
3693 3698 3699 2400 2297 2334 2318 2298 2063 
2572 2277 2358 2992 2472 2223 3013 3436 2613 
2638 2979 2811 3424 3028 1498 3198 3700 3701 
3706 3707 3702 3703 3708 3709 3704 3705 3710 
3711 2350 2328 2366 2299 2529 2241 2474 2399 
2224 2228 2015 2040 3353 2043 3383 2212 2593 
3416 2767 1817 3712 3713 3718 3719 3714 3715 
3720 3721 3716 3717 3722 3723 2312 2317 2415 
2329 2554 2387 2058 2540 2480 2464 2270 2664 
2054 1811 3264 2081 3443 2243 2654 3724 3725 
3730 3731 3726 3727 3732 3733 3728 3729 3734 
3735 2345 2333 2541 2332 2094 2522 2553 3283 
3025 3203 3296 1983 3163 2045 2822 1714 3223 
3414 3736 3737 3742 3743 3738 3739 3744 3745 
3740 3741 3746 3747 2525 2383 2539 2240 2325 
2273 3182 2215 2406 2600 2091 2391 2636 3164 
2567 3138 2001 2803 2736 3748 3749 3754 3755 
3750 3751 3756 3757 3752 3753 3758 3759 2414 
2508 2523 2457 2246 2077 3192 2111 2093 3237 
2309 2261 2568 2741 3463 2786 2732 2813 3452 
1960 1970 3760 3761 3766 3767 3762 3763 3768 
3769 3764 3765 3770 3771 2092 2109 2074 2269 
2076 2520 2291 3124 3315 3162 2997 3426 3173 
3295 2622 3218 2006 2768 3772 3773 3774 3775 
3777 3776 2386 3305 3023 2660 2500 2671 3186 
2588 2501 2668 3294 3146 2031 3258 3047 2258 
1773 3435 2776 3277 3778 3779 3784 3785 3780 
3781 3786 3787 3782 3783 3788 3789 2581 2606 
3033 2026 2070 2027 2551 2041 3142 3363 3254 
3022 3445 3148 3444 1999 2744 1753 3790 3791 
3796 3797 3792 3793 3798 3799 3794 3795 3800 
3801 2032 2504 2417 2558 2213 2569 2552 2583 
3147 3122 2996 3017 3156 3243 1802 3385 3434 
2754 3802 3803 3808 3809 3804 3805 3810 3811 
3806 3807 3812 3813 2465 3123 2584 2587 3322 
2527 2640 3039 2579 2532 2000 1998 3058 762 
3298 2355 3036 2708 2780 2530 2717 3814 3815 
3820 3821 3816 3817 3822 3823 3818 3819 3824 
3825 2021 2633 3225 2227 3027 1991 3029 2550 
3234 2008 3386 3038 3208 2761 2777 2965 2740 
2966 3826 3827 3832 3833 3828 3829 3834 3835 
3830 3831 3836 3837 2095 3018 2784 2576 3143 
2601 3308 3239 3007 3453 3268 3357 3008 1963 
2469 2733 2723 2621 2739 2967 3838 3839 3844 
3845 3840 3841 3846 3847 3842 3843 3848 3849 
2374 2794 3055 2631 3252 3328 3257 1734 3256 
2792 613 2450 2596 3327 2755 2970 2971 2968 
2991 3850 3851 3856 3857 3852 3853 3858 3859 
3854 3855 3860 3861 2512 3347 3197 2617 3248 
3405 3127 2804 2982 1426 2775 2677 2712 2632 
2533 3011 2709 3031 3862 3863 3868 3869 3871 
3870 3865 3864 3867 3873 3866 3872 2724 2789 
2750 3432 3317 2752 3404 2290 2734 2714 2084 
3001 2679 3325 2661 3201 1969 3061 3041 3874 
3875 3880 3881 3876 3877 3882 3883 3878 3879 
3884 3885 636 3238 2711 2612 2756 2760 2306 
2562 2720 2482 2647 2210 2964 2977 1971 3211 
2467 3231 3291 3331 3886 3887 3892 3893 3888 
3889 3894 3895 3890 3891 3896 3897 2598 3265 
1988 2663 2657 2519 2627 2611 2672 1984 1978 
2675 2322 2974 2035 3321 2590 3381 2518 3411 
3898 3899 3904 3905 3900 3901 3906 3907 3902 
3903 3908 3909 3340 3020 3401 2052 3420 3361 
2634 3220 3371 3441 3141 3351 3241 3150 3461 
2980 3431 3471 3481 3910 3911 3916 3917 3912 
3913 3918 3919 3914 3915 3920 3921 3526 3480 
3450 3451 3527 3520 3528 3490 3460 3529 3500 
3380 3470 3530 3511 3440 3491 3501 3521 3531 
3922 3923 3928 3929 3924 3925 3930 3931 3926 
3927 3932 3933 3532 3533 3548 3549 3534 3535 
3550 3551 3536 3537 3552 3553 3538 3539 3554 
3555 3540 3541 3556 3557 3934 3935 3940 3941 
3936 3937 3942 3943 3938 3939 3944 3945 3564 
3565 3580 3581 3566 3567 3582 3583 3568 3569 
3584 3585 3570 3571 3586 3587 3572 3573 3588 
3589 3946 3947 3952 3953 3948 3949 3954 3955 
3950 3951 3956 3957 3560 3561 3590 3591 3558 
3559 3578 3579 3546 3547 3576 3577 3544 3545 
3574 3575 3542 3543 3562 3563 3958 3959 3964 
3965 3960 3961 3966 3967 3968 3963 3969 3962 

C_[0] 1 3969 double
0 0 0 0 0 0 0 0 0 
0 0 0 0 0 0 0 0 0 
0 0 0 0 0 0 0 0 0 
0 0 0 0 0 0 0 0 0 
0 0 0 0 0 0 0 0 0 
0 0 0 0 0 0 0 0 0 
0 0 0 0 0 0 0 0 0 
0 0 0 0 0 0 0 0 0 
0 0 0 0 0 0 0 0 0 
0 0 0 0 0 0 0 0 0 
0 0 0 0 0 0 0 0 0 
0 0 0 0 0 0 0 0 0 
0.00137418 0.00247379 0.00927444 0.0171331 0.0117939 0.00603277 0.0277962 0.00807977 0.0257115 
0.013536 0.0458624 0.049549 0.0121443 0.0187838 0.048773 0.0735011 0.0353412 0.0858303 
0.0183043 0.0789324 0.0290029 0.0996319 0 0 0 0 0 
0 0 0 0 0 0 0 0.0221584 0.0142733 
0.00435478 0.00815316 0.0349753 0.031256 0.0380459 0.0542564 0.0549942 0.0834095 0.080232 
0.0843223 0.1142 0.121007 0.0850017 0.119061 0.132201 0.177894 0.134962 0.194607 
0.154252 0 0 0 0 0 0 0 0 