# vtk DataFile Version 3.0
Generated by LAMMPS
ASCII
DATASET POLYDATA
POINTS 3969 float
-0.607843 -0.607843 0 -0.588235 -0.607843 0 -0.607843 -0.588235 0 
-0.588235 -0.588235 0 -0.568627 -0.607843 0 -0.54902 -0.607843 0 
-0.568627 -0.588235 0 -0.54902 -0.588235 0 -0.529412 -0.607843 0 
-0.509804 -0.607843 0 -0.529412 -0.588235 0 -0.509804 -0.588235 0 
-0.490196 -0.607843 0 -0.470588 -0.607843 0 -0.490196 -0.588235 0 
-0.470588 -0.588235 0 -0.45098 -0.607843 0 -0.431373 -0.607843 0 
-0.45098 -0.588235 0 -0.431373 -0.588235 0 -0.411765 -0.607843 0 
-0.392157 -0.607843 0 -0.411765 -0.588235 0 -0.392157 -0.588235 0 
-0.372549 -0.607843 0 -0.352941 -0.607843 0 -0.372549 -0.588235 0 
-0.352941 -0.588235 0 -0.333333 -0.607843 0 -0.313726 -0.607843 0 
-0.333333 -0.588235 0 -0.313726 -0.588235 0 -0.607843 -0.568627 0 
-0.588235 -0.568627 0 -0.607843 -0.54902 0 -0.588235 -0.54902 0 
-0.568627 -0.568627 0 -0.54902 -0.568627 0 -0.568627 -0.54902 0 
-0.54902 -0.54902 0 -0.529412 -0.568627 0 -0.509804 -0.568627 0 
-0.529412 -0.54902 0 -0.509804 -0.54902 0 -0.490196 -0.568627 0 
-0.470588 -0.568627 0 -0.490196 -0.54902 0 -0.470588 -0.54902 0 
-0.45098 -0.568627 0 -0.431373 -0.568627 0 -0.45098 -0.54902 0 
-0.431373 -0.54902 0 -0.411765 -0.568627 0 -0.392157 -0.568627 0 
-0.411765 -0.54902 0 -0.392157 -0.54902 0 -0.372549 -0.568627 0 
-0.352941 -0.568627 0 -0.352941 -0.54902 0 -0.372549 -0.54902 0 
-0.333333 -0.568627 0 -0.313726 -0.568627 0 -0.313726 -0.54902 0 
-0.333333 -0.54902 0 -0.607843 -0.529412 0 -0.588235 -0.529412 0 
-0.607843 -0.509804 0 -0.588235 -0.509804 0 -0.568627 -0.529412 0 
-0.54902 -0.529412 0 -0.568627 -0.509804 0 -0.54902 -0.509804 0 
-0.529412 -0.529412 0 -0.509804 -0.529412 0 -0.529412 -0.509804 0 
-0.509804 -0.509804 0 -0.470588 -0.509804 0 -0.490196 -0.509804 0 
-0.470588 -0.529412 0 -0.490196 -0.529412 0 -0.431373 -0.509804 0 
-0.45098 -0.509804 0 -0.431373 -0.529412 0 -0.45098 -0.529412 0 
-0.392157 -0.509804 0 -0.411765 -0.509804 0 -0.392157 -0.529412 0 
-0.411765 -0.529412 0 -0.352941 -0.509804 0 -0.372549 -0.509804 0 
-0.352941 -0.529412 0 -0.372549 -0.529412 0 -0.313726 -0.509804 0 
-0.333333 -0.509804 0 -0.313726 -0.529412 0 -0.333333 -0.529412 0 
-0.607843 -0.490196 0 -0.588235 -0.490196 0 -0.607843 -0.470588 0 
-0.588235 -0.470588 0 -0.568627 -0.490196 0 -0.54902 -0.490196 0 
-0.568627 -0.470588 0 -0.54902 -0.470588 0 -0.529412 -0.490196 0 
-0.509804 -0.490196 0 -0.529412 -0.470588 0 -0.509804 -0.470588 0 
-0.5 -0.491844 0 -0.481017 -0.5 0 -0.484375 -0.474172 0 
-0.466227 -0.473271 0 -0.462696 -0.485039 0 -0.454081 -0.498588 0 
-0.448816 -0.467164 0 -0.433332 -0.473487 0 -0.431708 -0.5 0 
-0.425184 -0.484057 0 -0.407391 -0.495984 0 -0.409645 -0.473155 0 
-0.393174 -0.475192 0 -0.385579 -0.499868 0 -0.36454 -0.496281 0 
-0.376152 -0.477144 0 -0.35336 -0.471442 0 -0.347381 -0.491905 0 
-0.328049 -0.499208 0 -0.336819 -0.470609 0 -0.321418 -0.473679 0 
-0.309853 -0.494121 0 -0.607843 -0.45098 0 -0.588235 -0.45098 0 
-0.607843 -0.431373 0 -0.588235 -0.431373 0 -0.568627 -0.45098 0 
-0.54902 -0.45098 0 -0.568627 -0.431373 0 -0.54902 -0.431373 0 
-0.529412 -0.45098 0 -0.509804 -0.45098 0 -0.529412 -0.431373 0 
-0.509804 -0.431373 0 -0.474297 -0.453341 0 -0.488845 -0.444527 0 
-0.5 -0.46314 0 -0.5 -0.428559 0 -0.47086 -0.429953 0 
-0.458536 -0.444361 0 -0.439499 -0.446223 0 -0.434891 -0.429019 0 
-0.422588 -0.455382 0 -0.405363 -0.449855 0 -0.41746 -0.431281 0 
-0.388967 -0.45341 0 -0.386454 -0.434207 0 -0.36898 -0.461094 0 
-0.369046 -0.438819 0 -0.35201 -0.447725 0 -0.335877 -0.446602 0 
-0.33725 -0.424774 0 -0.318739 -0.431226 0 -0.318004 -0.451291 0 
-0.607843 -0.411765 0 -0.588235 -0.411765 0 -0.607843 -0.392157 0 
-0.588235 -0.392157 0 -0.568627 -0.411765 0 -0.54902 -0.411765 0 
-0.568627 -0.392157 0 -0.54902 -0.392157 0 -0.529412 -0.411765 0 
-0.509804 -0.411765 0 -0.529412 -0.392157 0 -0.509804 -0.392157 0 
-0.486183 -0.415659 0 -0.497238 -0.393468 0 -0.477286 -0.386508 0 
-0.470568 -0.408384 0 -0.452428 -0.42233 0 -0.454782 -0.400387 0 
-0.439421 -0.400832 0 -0.425586 -0.407434 0 -0.403637 -0.422754 0 
-0.408454 -0.401718 0 -0.398372 -0.386339 0 -0.388415 -0.411312 0 
-0.354952 -0.423552 0 -0.37162 -0.415528 0 -0.380866 -0.391499 0 
-0.362645 -0.395119 0 -0.347124 -0.403249 0 -0.335066 -0.38987 0 
-0.32546 -0.408622 0 -0.31058 -0.39283 0 -0.607843 -0.372549 0 
-0.588235 -0.372549 0 -0.607843 -0.352941 0 -0.588235 -0.352941 0 
-0.568627 -0.372549 0 -0.54902 -0.372549 0 -0.568627 -0.352941 0 
-0.54902 -0.352941 0 -0.529412 -0.372549 0 -0.509804 -0.372549 0 
-0.529412 -0.352941 0 -0.509804 -0.352941 0 -0.48742 -0.371171 0 
-0.497131 -0.353145 0 -0.472511 -0.356109 0 -0.463901 -0.37851 0 
-0.433544 -0.375284 0 -0.447431 -0.371771 0 -0.455804 -0.352482 0 
-0.432483 -0.350182 0 -0.419983 -0.383178 0 -0.406348 -0.367677 0 
-0.41749 -0.353308 0 -0.388686 -0.361568 0 -0.374427 -0.372922 0 
-0.369565 -0.351974 0 -0.355959 -0.375482 0 -0.342566 -0.368116 0 
-0.322725 -0.376885 0 -0.325186 -0.356302 0 -0.607843 -0.333333 0 
-0.588235 -0.333333 0 -0.607843 -0.313726 0 -0.588235 -0.313726 0 
-0.568627 -0.333333 0 -0.54902 -0.333333 0 -0.568627 -0.313726 0 
-0.54902 -0.313726 0 -0.529412 -0.333333 0 -0.509804 -0.333333 0 
-0.529412 -0.313726 0 -0.509804 -0.313726 0 -0.478355 -0.339767 0 
-0.479755 -0.320772 0 -0.499372 -0.324582 0 -0.444042 -0.337104 0 
-0.462138 -0.328641 0 -0.443349 -0.316056 0 -0.425313 -0.322721 0 
-0.39884 -0.343854 0 -0.413654 -0.329585 0 -0.394267 -0.319756 0 
-0.354696 -0.346675 0 -0.382049 -0.33734 0 -0.373149 -0.319164 0 
-0.35853 -0.325103 0 -0.309563 -0.339664 0 -0.338385 -0.343583 0 
-0.342283 -0.318798 0 -0.324661 -0.329344 0 -0.321913 -0.308754 0 
-0.607843 -0.294118 0 -0.588235 -0.294118 0 -0.607843 -0.27451 0 
-0.588235 -0.27451 0 -0.568627 -0.294118 0 -0.54902 -0.294118 0 
-0.568627 -0.27451 0 -0.54902 -0.27451 0 -0.529412 -0.294118 0 
-0.509804 -0.294118 0 -0.529412 -0.27451 0 -0.509804 -0.27451 0 
-0.483148 -0.275215 0 -0.470656 -0.284887 0 -0.496448 -0.297541 0 
-0.474981 -0.302633 0 -0.432858 -0.274759 0 -0.445925 -0.286333 0 
-0.432271 -0.300217 0 -0.458294 -0.304506 0 -0.404172 -0.279638 0 
-0.416494 -0.293791 0 -0.388736 -0.279974 0 -0.404493 -0.305608 0 
-0.362549 -0.271344 0 -0.368934 -0.292566 0 -0.384118 -0.300585 0 
-0.354844 -0.300611 0 -0.34639 -0.277221 0 -0.326664 -0.278475 0 
-0.336914 -0.298154 0 -0.313012 -0.287912 0 -0.607843 -0.254902 0 
-0.588235 -0.254902 0 -0.607843 -0.235294 0 -0.588235 -0.235294 0 
-0.568627 -0.254902 0 -0.54902 -0.254902 0 -0.568627 -0.235294 0 
-0.54902 -0.235294 0 -0.529412 -0.254902 0 -0.509804 -0.254902 0 
-0.529412 -0.235294 0 -0.509804 -0.235294 0 -0.495155 -0.266086 0 
-0.465119 -0.256233 0 -0.47319 -0.243072 0 -0.494137 -0.243363 0 
-0.455409 -0.269442 0 -0.439388 -0.253431 0 -0.449845 -0.240385 0 
-0.41901 -0.264131 0 -0.402891 -0.256442 0 -0.421471 -0.242718 0 
-0.388262 -0.24862 0 -0.377788 -0.264244 0 -0.357956 -0.249235 0 
-0.370306 -0.238661 0 -0.340359 -0.258675 0 -0.32276 -0.256226 0 
-0.342381 -0.235335 0 -0.324701 -0.234745 0 -0.607843 -0.215686 0 
-0.588235 -0.215686 0 -0.607843 -0.196078 0 -0.588235 -0.196078 0 
-0.568627 -0.215686 0 -0.54902 -0.215686 0 -0.568627 -0.196078 0 
-0.54902 -0.196078 0 -0.529412 -0.215686 0 -0.509804 -0.215686 0 
-0.529412 -0.196078 0 -0.509804 -0.196078 0 -0.475778 -0.226519 0 
-0.472754 -0.208711 0 -0.499292 -0.223125 0 -0.486247 -0.200717 0 
-0.433354 -0.227524 0 -0.455915 -0.220499 0 -0.441587 -0.209753 0 
-0.45727 -0.194661 0 -0.408184 -0.231215 0 -0.39022 -0.22731 0 
-0.424626 -0.197725 0 -0.416676 -0.213728 0 -0.396199 -0.208475 0 
-0.353984 -0.222071 0 -0.373713 -0.217386 0 -0.363744 -0.201895 0 
-0.384635 -0.195025 0 -0.330275 -0.214744 0 -0.345439 -0.201974 0 
-0.324384 -0.198727 0 -0.607843 -0.176471 0 -0.588235 -0.176471 0 
-0.607843 -0.156863 0 -0.588235 -0.156863 0 -0.568627 -0.176471 0 
-0.54902 -0.176471 0 -0.568627 -0.156863 0 -0.54902 -0.156863 0 
-0.529412 -0.176471 0 -0.509804 -0.176471 0 -0.529412 -0.156863 0 
-0.509804 -0.156863 0 -0.491679 -0.186496 0 -0.46933 -0.166029 0 
-0.492964 -0.166767 0 -0.440733 -0.186021 0 -0.463184 -0.178976 0 
-0.441718 -0.167568 0 -0.425423 -0.159338 0 -0.406041 -0.18983 0 
-0.417907 -0.176369 0 -0.392135 -0.173169 0 -0.40343 -0.159845 0 
-0.373523 -0.180081 0 -0.354874 -0.179984 0 -0.378506 -0.156649 0 
-0.362443 -0.159163 0 -0.339923 -0.179604 0 -0.325886 -0.172258 0 
-0.310272 -0.175904 0 -0.607843 -0.137255 0 -0.588235 -0.137255 0 
-0.607843 -0.117647 0 -0.588235 -0.117647 0 -0.568627 -0.137255 0 
-0.54902 -0.137255 0 -0.568627 -0.117647 0 -0.54902 -0.117647 0 
-0.529412 -0.137255 0 -0.509804 -0.137255 0 -0.529412 -0.117647 0 
-0.509804 -0.117647 0 -0.485653 -0.149024 0 -0.468162 -0.139818 0 
-0.464699 -0.124614 0 -0.498211 -0.137897 0 -0.455851 -0.152989 0 
-0.435203 -0.143016 0 -0.443686 -0.130474 0 -0.41115 -0.14076 0 
-0.390737 -0.142652 0 -0.418994 -0.125286 0 -0.399051 -0.122526 0 
-0.350386 -0.149053 0 -0.376307 -0.129939 0 -0.362172 -0.129336 0 
-0.334894 -0.15041 0 -0.316541 -0.151481 0 -0.338072 -0.129662 0 
-0.31929 -0.130055 0 -0.309454 -0.116224 0 -0.607843 -0.0980392 0 
-0.588235 -0.0980392 0 -0.607843 -0.0784314 0 -0.588235 -0.0784314 0 
-0.568627 -0.0980392 0 -0.54902 -0.0980392 0 -0.568627 -0.0784314 0 
-0.54902 -0.0784314 0 -0.529412 -0.0980392 0 -0.509804 -0.0980392 0 
-0.529412 -0.0784314 0 -0.509804 -0.0784314 0 -0.477014 -0.114136 0 
-0.49385 -0.114744 0 -0.474701 -0.0956285 0 -0.486523 -0.0868338 0 
-0.443292 -0.111789 0 -0.4255 -0.108072 0 -0.453525 -0.0979918 0 
-0.436956 -0.0874024 0 -0.461392 -0.0805039 0 -0.402427 -0.102691 0 
-0.415722 -0.0912254 0 -0.401069 -0.0781844 0 -0.353103 -0.114159 0 
-0.383705 -0.109543 0 -0.384152 -0.0861547 0 -0.369848 -0.0997246 0 
-0.36437 -0.0803358 0 -0.347194 -0.0961605 0 -0.331692 -0.11073 0 
-0.320385 -0.0939876 0 -0.336618 -0.0828898 0 -0.607843 -0.0588235 0 
-0.588235 -0.0588235 0 -0.607843 -0.0392157 0 -0.588235 -0.0392157 0 
[...]
POINT_DATA 3969
FIELD FieldData 5
id 1 3969 int
161 162 167 168 163 164 169 170 165 
166 171 172 107 108 123 124 109 110 
125 126 111 112 127 128 113 114 129 
130 115 116 131 132 173 174 179 180 
175 176 181 182 177 178 183 184 139 
140 155 156 141 142 157 158 143 144 
159 160 145 146 153 154 147 148 151 
152 185 186 191 192 187 188 193 194 
189 190 195 196 119 120 149 150 117 
118 137 138 105 106 135 136 103 104 
133 134 101 102 121 122 197 198 203 
204 199 200 205 206 201 202 207 208 
1013 1015 1499 2242 1019 1021 1759 2628 1023 
2645 2470 1732 771 1411 2483 54 2799 263 
2546 621 642 2728 209 210 215 216 211 
212 217 218 213 214 219 220 2788 1016 
1009 9 623 1779 280 1774 1832 3387 1504 
1808 519 65 1029 334 27 1044 584 779 
221 222 227 228 223 224 229 230 225 
226 231 232 622 1803 292 1780 531 1816 
1793 770 1790 1307 1126 379 574 640 1580 
1682 1277 1381 1069 1148 233 234 239 240 
235 236 241 242 237 238 243 244 1798 
1529 610 1775 1809 62 1665 1683 759 85 
1602 1691 1354 1094 1298 1581 1093 345 245 
246 251 252 247 248 253 254 249 250 
255 256 571 1794 2487 73 632 791 1076 
562 1486 1339 1259 1535 1310 1124 1632 325 
1138 1117 1357 407 408 413 414 409 410 
415 416 411 412 417 418 2790 1646 1776 
1046 344 586 1276 13 1519 1043 1265 88 
1387 1294 1263 1401 1386 1416 1492 1105 419 
420 425 426 421 422 427 428 423 424 
429 430 1592 390 369 614 354 19 33 
503 1252 1324 1643 1131 1456 1524 1328 1341 
1317 1348 431 432 437 438 433 434 439 
440 435 436 441 442 2531 2769 1017 2753 
1101 792 1657 320 1151 1290 1129 1109 1153 
1431 1275 1372 1139 1331 1343 1347 443 444 
449 450 445 446 451 452 447 448 453 
454 96 2748 655 1395 260 570 556 1266 
1088 1104 1267 1371 1400 1359 1344 1362 1329 
1375 455 456 461 462 457 458 463 464 
459 460 465 466 86 564 611 1022 540 
1576 1099 313 1305 333 1597 1358 1482 1455 
1346 1345 1555 1374 1441 467 468 473 474 
469 470 475 476 471 472 477 478 1778 
1058 2738 782 43 1452 1293 1614 1745 1110 
1453 1295 1373 1121 1325 1496 355 1423 1572 
1541 1321 479 480 485 486 481 482 487 
488 483 484 489 490 1020 36 1730 654 
1012 1051 554 1588 1135 1501 1599 1118 1119 
1147 506 1320 1133 1257 1134 491 492 493 
494 495 496 612 400 1725 7 330 1610 
1815 781 1084 1640 542 381 1261 1090 1647 
1645 592 1281 657 658 663 664 659 660 
665 666 661 662 667 668 1763 2471 644 
590 1018 2806 1081 520 1782 1637 301 1091 
270 1556 1593 1059 1092 1551 1396 1152 669 
670 675 676 671 672 677 678 673 674 
679 680 1143 312 1618 2674 1598 560 63 
1560 1651 1830 1656 1323 314 1633 1532 1140 
1253 304 681 682 687 688 683 684 689 
690 685 686 691 692 34 2034 2658 2706 
1791 550 2721 396 1438 1611 523 555 1483 
1689 1521 534 1586 1108 1506 693 694 699 
700 695 696 701 702 697 698 703 704 
2725 1770 1487 1814 1622 1368 2770 1761 1813 
1338 1543 1547 545 1688 1639 1264 1063 1087 
1369 1141 705 706 711 712 707 708 713 
714 709 710 715 716 1784 501 1726 1728 
2517 392 1661 2802 510 1672 1155 55 45 
1792 1107 1123 1049 275 30 717 718 723 
724 719 720 725 726 721 722 727 728 
1577 646 2 1 1533 53 1986 331 1738 
1797 1735 380 1590 1795 530 66 97 282 
653 1398 729 730 735 736 731 732 737 
738 733 734 739 740 1652 1729 1014 21 
302 2678 1787 2018 1484 1764 1756 1760 581 
1743 633 772 1041 1749 1062 521 741 742 
747 748 743 744 749 750 745 746 751 
752 4 31 41 61 1786 5 6 11 
1742 1769 1680 1767 1800 1054 1080 1762 98 
261 48 913 914 919 920 915 916 921 
922 917 918 923 924 257 1677 91 2610 
1620 1664 1741 1531 1650 1723 512 1518 1783 
1746 532 391 1687 361 1744 925 926 931 
932 927 928 933 934 929 930 935 936 
1693 357 596 507 2580 1383 1098 71 2564 
594 1033 1675 1503 8 1038 2547 553 1514 
937 938 943 944 939 940 945 946 941 
942 947 948 2066 547 1026 597 647 397 
1128 317 20 1558 1607 1397 1559 1673 22 
514 1563 1621 1578 949 950 955 956 951 
952 957 958 953 954 959 960 577 753 
783 793 557 527 72 348 617 327 627 
537 297 587 598 1028 10 377 1112 517 
961 962 967 968 963 964 969 970 965 
966 971 972 774 803 833 558 843 813 
814 844 773 784 845 754 823 804 846 
847 764 834 848 973 974 979 980 975 
976 981 982 977 978 983 984 859 860 
875 876 861 862 877 878 863 864 879 
880 865 866 881 882 867 868 883 884 
985 986 991 992 987 988 993 994 989 
990 995 996 891 892 907 908 893 894 
909 910 895 896 911 912 897 898 905 
906 899 900 903 904 997 998 1003 1004 
999 1000 1005 1006 1001 1002 1007 1008 871 
872 901 902 869 870 889 890 857 858 
887 888 855 856 885 886 853 874 873 
854 1159 1160 1174 1175 1161 1162 1176 1177 
1163 1164 1178 1179 1165 1166 1180 1181 1167 
1168 1182 1183 1169 1170 1184 1185 1171 1172 
1186 1187 1173 1188 1189 1190 1204 1205 1191 
1192 1206 1207 1193 1194 1208 1209 1195 1196 
1210 1211 1197 1198 1212 1213 1199 1200 1214 
1215 1201 1202 1216 1217 1203 1218 1219 1220 
1234 1235 1221 1222 1236 1237 1223 1224 1238 
1239 1225 1226 1240 1241 1227 1228 1242 1243 
1229 1230 1244 1245 1231 1232 1246 1247 1233 
1248 370 3229 1818 1788 3374 652 1158 1064 
1748 582 3462 84 2781 780 559 1992 1308 
2818 801 1810 2795 2808 2715 1833 2821 1777 
3384 281 1799 600 83 1608 499 382 1658 
1425 271 1737 1591 375 758 1073 1067 342 
1826 651 1827 812 1306 1513 14 339 403 
26 82 1096 589 516 1824 359 768 2796 
802 2534 1674 1296 1596 89 1095 522 1292 
366 50 552 1516 1546 336 1642 1628 1045 
767 1550 1146 1127 1071 1627 99 1024 1717 
790 265 566 799 1100 1573 1125 283 1520 
356 1567 1089 1477 406 1409 1445 1507 343 
1511 1260 1540 1156 1144 1410 376 395 266 
49 1648 573 303 513 1502 757 1669 259 
2836 1538 1102 1554 285 1342 1568 1384 1122 
1415 1327 1603 1315 1424 1625 1356 1086 1522 
1061 1366 1582 67 335 524 1353 1736 509 
1663 349 290 93 268 1286 1446 1314 1370 
1349 1285 1287 1271 1301 1270 1601 1316 1313 
1458 1367 525 1571 1594 1380 262 1552 1718 
1280 1116 70 620 2274 498 289 399 789 
2819 1318 1569 1302 1332 1364 1333 1392 1407 
1406 1393 1379 1350 1421 1334 1299 1429 1449 
1355 1585 1337 1570 1553 1103 1322 264 533 
329 402 1050 1485 28 1785 1378 1330 1377 
1363 1376 1420 1391 1451 1404 1405 1312 1481 
1490 1085 1542 363 276 1309 535 1060 78 
39 1068 1106 1804 822 1561 3209 12 1360 
1432 1493 1389 1447 1361 1402 1390 1403 1418 
1436 1340 1272 1526 1422 1303 405 1527 1251 
502 583 561 606 1641 593 798 585 549 
788 3303 778 3427 1417 1509 1539 1523 1448 
1388 1433 1508 1494 1434 1408 1443 1256 1268 
1300 1249 383 1587 1606 504 75 528 1056 
17 800 307 579 309 319 64 388 1478 
1510 1137 1480 1479 1495 1442 1435 1288 1505 
305 1414 1352 316 1536 624 79 1626 777 
1805 1459 1460 3454 1579 1461 1120 1336 1437 
1525 1394 1419 1274 1450 1440 1311 1255 1474 
1326 1557 1679 1615 1604 1055 1589 1721 269 
569 1462 1466 1823 1463 1464 1467 1468 1465 
1469 1351 1304 1136 1512 1289 1150 1273 1254 
1335 1497 1319 1624 1154 77 656 386 1584 
1690 518 29 1530 1470 1472 1471 1473 1291 
1537 1365 1149 1258 1534 1282 1284 1283 1457 
326 1279 1130 626 1053 1036 401 1694 1695 
1699 810 1822 809 1696 1697 1700 1701 1698 
1702 1262 1489 284 1612 1491 1385 1269 1476 
1075 286 1644 1660 306 1132 1040 296 1629 
1074 602 353 1703 1707 299 2840 1704 1705 
1708 1709 1706 1710 1616 1565 1070 1574 1430 
1297 1475 60 1609 1635 1113 394 1564 544 
1145 315 56 1048 1382 59 1427 615 1636 
756 24 1595 1711 1712 811 1843 1820 1862 
619 1713 1828 2830 1114 90 1600 575 1428 
505 546 1631 384 374 565 404 46 1617 
1751 322 625 373 1684 1082 310 298 599 
2852 819 609 1841 1399 515 346 1115 601 
1662 311 365 1613 37 340 1250 1444 68 
1077 1072 603 595 295 2423 352 1655 81 
497 1638 1025 832 2831 630 808 1848 2805 
500 760 1042 350 1039 1157 1634 526 364 
385 511 1528 1562 635 272 47 1766 2595 
1747 1733 372 1011 100 1649 92 1083 588 
3502 1821 797 1605 44 76 38 1566 1079 
1678 591 576 1575 1066 1111 634 57 1583 
2578 293 294 1454 1654 1653 1037 1623 536 
324 23 538 267 300 1097 2839 821 321 
1796 551 1549 40 1142 643 87 1078 1057 
360 1781 1685 371 1544 1548 332 604 563 
1722 1724 2338 1052 1630 32 308 650 2843 
796 1819 830 1844 1715 273 58 1801 1765 
274 541 616 1716 1771 69 1412 1754 1670 
2629 362 543 1666 42 1030 378 18 288 
578 639 548 787 2835 820 393 1772 1739 
1731 80 1740 1755 1659 1686 323 1671 2503 
1545 3 15 1032 1692 1676 1010 287 328 
629 278 755 766 618 816 828 1840 1838 
605 1065 1027 1517 1488 1035 1500 1720 1515 
1031 1278 1667 1681 387 1034 52 1047 367 
277 567 318 568 649 608 815 776 806 
817 807 818 1845 2841 1852 2842 398 25 
51 638 16 508 337 607 347 368 648 
775 338 358 637 628 805 765 786 839 
840 841 831 842 1836 1835 1842 1839 2850 
763 794 850 849 795 824 851 835 852 
785 1849 825 1850 836 1851 826 837 1853 
827 1854 838 1855 829 1857 1856 1834 1858 
1859 1837 1860 1861 1863 1864 1865 1879 1880 
1866 1867 1881 1882 1868 1869 1883 1884 1870 
1871 1885 1886 1872 1873 1887 1888 1874 1875 
1889 1890 1876 1877 1891 1892 1878 1893 1894 
1895 1909 1910 1896 1897 1911 1912 1898 1899 
1913 1914 1900 1901 1915 1916 1902 1903 1917 
1918 1904 1905 1919 1920 1906 1907 1921 1922 
1908 1923 1924 1925 1939 1940 1926 1927 1941 
1942 1928 1929 1943 1944 1930 1931 1945 1946 
1932 1933 1947 1948 1934 1935 1949 1950 1951 
1936 1937 1952 1938 1953 2114 2115 2130 2131 
2116 2117 2132 2133 2118 2119 2134 2135 2120 
2121 2136 2137 2122 2123 2138 2139 2124 2125 
2140 2141 2126 2127 2142 2143 2128 2129 2144 
2145 2146 2147 2162 2163 2148 2149 2164 2165 
2150 2151 2166 2167 2152 2153 2168 2169 2154 
2155 2170 2171 2156 2157 2172 2173 2158 2159 
2174 2175 2160 2161 2176 2177 2178 2179 2194 
2195 2180 2181 2196 2197 2182 2183 2198 2199 
2184 2185 2200 2201 2186 2187 2202 2203 2188 
2189 2204 2205 2190 2191 2206 2207 2192 2193 
2208 2209 1954 74 631 2984 3348 3137 2814 
1829 3482 2743 641 3406 3388 3278 389 1807 
291 2779 3433 2053 769 3367 3188 2765 3299 
2791 94 2976 645 351 279 2998 1439 3269 
3369 2651 2544 3334 2815 2592 2455 2650 3378 
2816 2801 3130 3255 3279 3010 3474 2012 1973 
3473 2828 2988 3253 3472 2373 580 2605 2809 
2051 2837 258 35 529 1980 3407 1806 2418 
2565 3447 2635 2985 2729 3125 2259 3284 3165 
2757 2010 3004 3226 3145 2497 2039 2044 2321 
3035 3312 3057 2108 1619 1789 3475 3415 95 
1847 2826 3359 2502 2371 2014 3242 3316 2036 
2323 3187 3133 2506 2599 3213 3134 2496 3282 
2357 2112 2100 2574 2342 2101 2424 3212 3048 
2825 2834 3144 3050 3003 2038 2017 2419 3214 
3326 2028 2016 2047 2075 3244 2262 2308 2557 
3292 2521 2403 3132 3204 2096 2367 2103 2073 
2421 3049 2975 3174 1987 3054 3345 2829 2528 
2239 3015 2555 3183 2368 2301 2352 2283 2401 
2285 2235 2282 2336 2250 2280 2302 2300 2494 
2314 2297 2456 2623 3154 3309 2669 3398 2972 
2625 2563 2763 3135 3267 2510 2088 3045 2288 
2234 2284 2266 2542 2320 2393 2218 2248 2236 
2458 2249 2310 2265 2295 2313 2298 2281 2296 
2067 3492 3158 3483 1989 3246 3034 3014 3216 
3403 2591 2559 2772 2341 3323 2351 2324 2254 
2585 2279 2231 2233 2394 2426 2264 2395 2311 
2312 2343 3159 2986 3160 3389 3060 2643 3352 
2275 2020 2005 2359 2420 2319 2384 2229 2252 
2267 2479 2427 2380 2379 2410 2411 2378 2377 
2347 2364 2346 2360 2327 2361 2330 1994 3437 
3465 2618 1846 3227 2226 3169 2271 2718 1965 
3456 2060 2113 2407 2292 2511 2219 2416 2353 
2566 2412 2247 2362 2348 2349 2397 2344 2331 
2316 2462 3030 2430 2431 2432 1757 2433 2434 
2099 2983 3289 3276 3262 2602 2303 2526 2102 
2255 2428 2396 2326 2363 2413 2381 2365 2382 
2388 2493 2398 2435 2436 2440 2441 2437 2438 
2442 2443 2439 2444 2973 3349 2029 3365 2577 
2670 3205 2214 2062 2069 3233 2335 2294 2460 
2461 2107 2422 2429 2491 2509 2389 2475 2473 
2445 2446 2447 2448 2449 2824 3476 2535 2007 
2616 2025 2408 3126 2286 2369 2489 2278 2476 
2459 2404 2477 2392 2376 2409 2492 2680 2681 
2686 2687 2682 2683 2688 2689 2684 2685 2690 
3139 2817 2762 3221 3206 2537 2211 2061 3236 
3016 2055 2571 2253 2586 2251 2402 2263 2110 
2340 2104 2090 2691 2692 2696 2697 2693 2694 
2698 2699 3484 2695 2700 1976 3466 2649 2659 
3297 3393 3176 2004 2463 3235 2505 2087 3002 
2589 3222 2105 2237 2507 2304 2370 2216 2287 
2701 2702 2705 3485 2833 2832 1825 2703 2704 
3438 3189 3140 2609 2673 3337 3375 3153 2582 
2244 2071 3202 2385 3274 2245 2268 2064 3232 
2220 2481 2495 2538 2827 3457 3280 3495 3199 
3178 2987 2002 2339 2019 3053 2485 3175 1997 
2759 3287 2575 2545 2097 2049 2080 2570 2048 
2059 2225 3324 2276 2573 2056 3314 3170 3408 
3496 3179 2978 1981 1974 2486 2033 2746 3335 
3275 3207 3423 3217 3024 3193 3332 2256 2766 
3052 2289 2556 2072 2230 2065 2085 3184 3263 
3342 2652 3293 2083 2513 3329 3009 3310 3477 
3304 1990 2666 2549 2498 3286 3382 2737 3037 
2011 2023 2603 2013 3019 3006 3313 2993 3172 
2608 3224 2257 3152 3273 3194 2079 2798 3379 
3190 3219 3493 1977 1985 2619 2468 2484 2466 
2452 2719 3376 3336 3422 3395 2747 572 3394 
2820 3026 3177 3396 2543 2604 2536 3046 1993 
3167 2024 2078 3494 3428 3281 3399 3180 2488 
2999 2990 2655 2642 2667 3196 2630 2749 3366 
2451 3266 2751 3356 3166 2787 1964 1995 2773 
2764 3355 1719 2037 3228 2620 1996 2862 3419 
3486 3311 1982 3300 2356 2981 2639 2516 2713 
2515 2354 2730 3354 3306 2778 2716 3412 2774 
2050 2771 3247 2022 3307 2745 3413 3136 2722 
2845 3448 2847 3506 3400 3250 3370 3230 3409 
3261 3181 3000 1975 3301 2962 2653 3021 3344 
3302 2597 3392 2648 3372 2641 2594 3373 2707 
3402 2514 2676 2735 2453 2499 3346 2846 3504 
3467 3487 3320 3390 3449 3360 3168 2989 3330 
3161 3200 3171 3210 2969 3191 1413 2003 2726 
2390 3131 3285 3051 1972 2624 2372 2646 2615 
1966 2856 2844 2849 3497 3513 3498 3512 3478 
3458 3505 3439 3468 3499 3489 3429 3410 3290 
3350 3270 3040 3421 3251 3430 3151 3341 3391 
3271 3240 2851 2838 2853 2848 2854 2855 3503 
2857 3514 2858 2859 3515 3516 2860 3507 2861 
3517 2863 3488 3508 2864 3518 2865 3509 3469 
3522 3523 3519 3459 3510 3524 3525 3479 2866 
2867 2882 2883 2868 2869 2884 2885 2870 2871 
2886 2887 2872 2873 2888 2889 2874 2875 2890 
2891 2876 2877 2892 2893 2878 2879 2894 2895 
2880 2881 2896 2897 2898 2899 2914 2915 2900 
2901 2916 2917 2902 2903 2918 2919 2904 2905 
2920 2921 2906 2907 2922 2923 2908 2909 2924 
2925 2910 2911 2926 2927 2912 2913 2928 2929 
2930 2931 2946 2947 2932 2933 2948 2949 2934 
2935 2950 2951 2936 2937 2952 2953 2938 2939 
2954 2955 2940 2941 2956 2957 2959 2958 2943 
2942 2960 2961 2944 2945 3062 3063 3078 3079 
3064 3065 3080 3081 3066 3067 3082 3083 3068 
3069 3084 3085 3070 3071 3086 3087 3592 3593 
3598 3599 3594 3595 3600 3601 3596 3597 3602 
3603 3094 3095 3110 3111 3096 3097 3112 3113 
3098 3099 3114 3115 3100 3101 3116 3117 3102 
3103 3118 3119 3604 3605 3610 3611 3606 3607 
3612 3613 3608 3609 3614 3615 3090 3091 3120 
3121 3088 3089 3108 3109 3076 3077 3106 3107 
3074 3075 3104 3105 3072 3073 3092 3093 3616 
3617 3622 3623 3618 3619 3624 3625 3620 3621 
3626 3627 1752 1758 2793 3128 2797 1831 3425 
1768 2731 2807 2800 1727 2742 2785 2727 1955 
1956 1668 2454 1961 1962 1967 3628 3629 3634 
3635 3630 3631 3636 3637 3632 3633 3638 3639 
3464 2637 3012 2812 2307 3259 3272 2810 2823 
3318 539 2995 3056 2783 2662 2644 1959 2710 
1968 3640 3641 3646 3647 3642 3643 3648 3649 
3644 3645 3650 3651 1812 2607 3343 2626 3185 
3446 3339 2046 2009 2068 3157 2560 3032 3377 
3368 3358 2994 3397 1957 1958 3652 3653 3658 
3659 3654 3655 3660 3661 3656 3657 3662 3663 
3043 2272 3005 2222 3195 2030 2057 3245 3455 
2656 3333 3362 3417 1979 3129 3215 2782 3319 
2548 2082 3664 3665 3670 3671 3666 3667 3672 
3673 3668 3669 3674 3675 2337 2490 2293 2425 
3042 2089 3044 2221 2665 2086 3059 3364 3260 
2614 3418 3149 3249 761 2098 2963 3676 3677 
3682 3683 3679 3685 3684 3678 3686 3680 3687 
3681 2063 2400 2405 2375 2277 2223 2572 2106 
3013 3436 2992 2472 2979 2613 2638 2811 3442 
3424 3338 3688 3689 3694 3695 3690 3691 3696 
3697 3692 3693 3698 3699 2334 2318 2350 2328 
2358 2529 2241 2224 2228 3383 3353 2043 2593 
2212 3028 1498 3198 3416 2767 3700 3701 3706 
3707 3702 3703 3708 3709 3704 3705 3710 3711 
2366 2317 2299 2474 2399 2554 2387 2058 2015 
2040 2480 2464 2664 2054 1811 3264 2081 3443 
2243 1817 3712 3713 3718 3719 3714 3715 3720 
3721 3716 3717 3722 3723 2415 2329 2333 2345 
2540 2094 2522 2553 2270 3025 3203 3296 1983 
3163 2045 2822 2654 3223 1714 3724 3725 3730 
3731 3726 3727 3732 3733 3728 3729 3734 3735 
2541 2332 2315 2525 2383 3283 2240 2325 2215 
3182 2406 2600 2091 2391 2636 3164 3138 3414 
2803 2001 3736 3737 3742 3743 3738 3739 3744 
3745 3740 3741 3746 3747 2539 2414 2478 2508 
2273 2246 3192 3237 2309 2077 2261 2567 2741 
3463 2786 2736 2813 2732 3748 3749 3754 3755 
3750 3751 3756 3757 3752 3753 3758 3759 2523 
2457 2524 2092 2111 2093 2076 2520 2568 3124 
3315 2997 3426 3173 3295 3452 3218 2006 1960 
1970 3760 3761 3766 3767 3762 3763 3768 3769 
3764 3765 3770 3771 2109 2217 2074 2269 2291 
3186 2660 3023 3162 2588 3294 2500 2668 3047 
3258 2622 2776 3435 2768 3277 3772 3773 3775 
3774 3777 3776 2305 2386 2260 3305 3033 2070 
2027 3363 3142 2501 2671 3445 3022 3146 2031 
2258 3444 1773 3778 3779 3784 3785 3780 3781 
3786 3787 3782 3783 3788 3789 2581 2238 2606 
2551 2041 2026 2032 2213 3254 2583 2552 3122 
3147 3148 3017 3156 1999 2744 1753 1802 3790 
3791 3796 3797 3792 3793 3798 3799 3794 3795 
3800 3801 2504 2232 2417 2465 2558 2527 2569 
2996 2532 1998 3243 2000 762 3385 3434 3036 
2754 2708 3802 3803 3808 3809 3804 3805 3810 
3811 3806 3807 3812 3813 3155 3123 2561 2042 
2584 2587 2640 3039 3322 2579 3058 3029 3298 
3038 2355 2780 2530 2777 2717 3814 3815 3820 
3821 3816 3817 3822 3823 3818 3819 3824 3825 
2021 2633 2095 3018 2227 3027 1991 3225 2601 
2550 3234 2008 3453 3386 3208 3008 2761 2965 
2740 2733 2966 3826 3827 3832 3833 3828 3829 
3834 3835 3830 3831 3836 3837 2784 2576 3308 
3143 2631 3268 3007 3357 3239 3257 1963 2469 
2450 2723 2621 2739 2967 3838 3839 3844 3845 
3840 3841 3846 3847 3842 3843 3848 3849 341 
2374 2794 3055 3252 3248 3328 1734 3256 2792 
613 2596 3327 2755 2970 2971 2968 2991 3850 
3851 3856 3857 3852 3853 3858 3859 3854 3855 
3860 3861 3288 2512 2750 3347 2617 3405 3197 
3404 3127 2982 2804 1426 2775 2677 2712 2632 
2533 2084 2661 3011 2709 3031 3862 3863 3868 
3869 3870 3865 3864 3871 3866 3867 3873 3872 
1750 2724 2789 2758 636 2756 3432 3317 2752 
2562 2290 2734 2714 3001 2679 3201 1969 3061 
3325 3041 3874 3875 3880 3881 3876 3877 3882 
3883 3878 3879 3884 3885 3238 2711 2612 2760 
2657 2306 2720 2482 2647 2210 2964 2977 1971 
3211 2467 3231 3291 2590 3331 3886 3887 3892 
3893 3888 3889 3894 3895 3890 3891 3896 3897 
2598 3265 1988 2663 2519 2627 2611 2672 1984 
1978 2675 2322 2974 2035 3321 3381 2518 3411 
3898 3899 3904 3905 3900 3901 3906 3907 3902 
3903 3908 3909 3340 3020 3401 2052 3420 3361 
2634 3371 3220 3441 3141 3351 3241 3150 3461 
2980 3431 3471 3481 3910 3911 3916 3917 3912 
3913 3918 3919 3914 3915 3920 3921 3526 3480 
3450 3451 3527 3520 3528 3490 3460 3529 3500 
3380 3470 3530 3511 3440 3491 3501 3521 3531 
3922 3923 3928 3929 3924 3925 3930 3931 3926 
3927 3932 3933 3532 3533 3548 3549 3534 3535 
3550 3551 3536 3537 3552 3553 3538 3539 3554 
3555 3540 3541 3556 3557 3934 3935 3940 3941 
3936 3937 3942 3943 3938 3939 3944 3945 3564 
3565 3580 3581 3566 3567 3582 3583 3568 3569 
3584 3585 3570 3571 3586 3587 3572 3573 3588 
3589 3946 3947 3952 3953 3948 3949 3954 3955 
3950 3951 3956 3957 3560 3561 3590 3591 3558 
3559 3578 3579 3546 3547 3576 3577 3544 3545 
3574 3575 3542 3543 3562 3563 3958 3959 3964 
3965 3960 3961 3966 3967 3969 3962 3968 3963 

C_[0] 1 3969 double
0 0 0 0 0 0 0 0 0 
0 0 0 0 0 0 0 0 0 
0 0 0 0 0 0 0 0 0 
0 0 0 0 0 0 0 0 0 
0 0 0 0 0 0 0 0 0 
0 0 0 0 0 0 0 0 0 
0 0 0 0 0 0 0 0 0 
0 0 0 0 0 0 0 0 0 
0 0 0 0 0 0 0 0 0 
0 0 0 0 0 0 0 0 0 
0 0 0 0 0 0 0 0 0 
0 0 0 0 0 0 0 0 0 
0.00137835 0.00247673 0.0095191 0.0165777 0.011861 0.00551035 0.0285531 0.0313679 0.00799201 
0.0235734 0.014351 0.0420146 0.0499329 0.0117094 0.0191058 0.0578358 0.0778832 0.0302398 
0.0177705 0.0901165 0.0930464 0.0304875 0 0 0 0 0 
0 0 0 0 0 0 0 0.0230957 0.0145771 
0.00450459 0.00836151 0.0374172 0.0401805 0.0545626 0.0740301 0.0557335 0.0756028 0.0904439 
0.0850429 0.117365 0.0882774 0.127754 0.128339 0.144776 0.184199 0.188346 0.146671 
0 0 0 0 0 0 0 0 0 