# vtk DataFile Version 3.0
Generated by LAMMPS
ASCII
DATASET POLYDATA
POINTS 3969 float
-0.607843 -0.607843 0 -0.588235 -0.607843 0 -0.607843 -0.588235 0 
-0.588235 -0.588235 0 -0.568627 -0.607843 0 -0.54902 -0.607843 0 
-0.568627 -0.588235 0 -0.54902 -0.588235 0 -0.529412 -0.607843 0 
-0.509804 -0.607843 0 -0.529412 -0.588235 0 -0.509804 -0.588235 0 
-0.490196 -0.607843 0 -0.470588 -0.607843 0 -0.490196 -0.588235 0 
-0.470588 -0.588235 0 -0.45098 -0.607843 0 -0.431373 -0.607843 0 
-0.45098 -0.588235 0 -0.431373 -0.588235 0 -0.411765 -0.607843 0 
-0.392157 -0.607843 0 -0.411765 -0.588235 0 -0.392157 -0.588235 0 
-0.372549 -0.607843 0 -0.352941 -0.607843 0 -0.372549 -0.588235 0 
-0.352941 -0.588235 0 -0.333333 -0.607843 0 -0.313726 -0.607843 0 
-0.333333 -0.588235 0 -0.313726 -0.588235 0 -0.607843 -0.568627 0 
-0.588235 -0.568627 0 -0.607843 -0.54902 0 -0.588235 -0.54902 0 
-0.568627 -0.568627 0 -0.54902 -0.568627 0 -0.568627 -0.54902 0 
-0.54902 -0.54902 0 -0.529412 -0.568627 0 -0.509804 -0.568627 0 
-0.529412 -0.54902 0 -0.509804 -0.54902 0 -0.490196 -0.568627 0 
-0.470588 -0.568627 0 -0.490196 -0.54902 0 -0.470588 -0.54902 0 
-0.45098 -0.568627 0 -0.431373 -0.568627 0 -0.45098 -0.54902 0 
-0.431373 -0.54902 0 -0.411765 -0.568627 0 -0.392157 -0.568627 0 
-0.411765 -0.54902 0 -0.392157 -0.54902 0 -0.372549 -0.568627 0 
-0.352941 -0.568627 0 -0.352941 -0.54902 0 -0.372549 -0.54902 0 
-0.333333 -0.568627 0 -0.313726 -0.568627 0 -0.313726 -0.54902 0 
-0.333333 -0.54902 0 -0.607843 -0.529412 0 -0.588235 -0.529412 0 
-0.607843 -0.509804 0 -0.588235 -0.509804 0 -0.568627 -0.529412 0 
-0.54902 -0.529412 0 -0.568627 -0.509804 0 -0.54902 -0.509804 0 
-0.529412 -0.529412 0 -0.509804 -0.529412 0 -0.529412 -0.509804 0 
-0.509804 -0.509804 0 -0.470588 -0.509804 0 -0.490196 -0.509804 0 
-0.470588 -0.529412 0 -0.490196 -0.529412 0 -0.431373 -0.509804 0 
-0.45098 -0.509804 0 -0.431373 -0.529412 0 -0.45098 -0.529412 0 
-0.392157 -0.509804 0 -0.411765 -0.509804 0 -0.392157 -0.529412 0 
-0.411765 -0.529412 0 -0.352941 -0.509804 0 -0.372549 -0.509804 0 
-0.352941 -0.529412 0 -0.372549 -0.529412 0 -0.313726 -0.509804 0 
-0.333333 -0.509804 0 -0.313726 -0.529412 0 -0.333333 -0.529412 0 
-0.607843 -0.490196 0 -0.588235 -0.490196 0 -0.607843 -0.470588 0 
-0.588235 -0.470588 0 -0.568627 -0.490196 0 -0.54902 -0.490196 0 
-0.568627 -0.470588 0 -0.54902 -0.470588 0 -0.529412 -0.490196 0 
-0.509804 -0.490196 0 -0.529412 -0.470588 0 -0.509804 -0.470588 0 
-0.5 -0.491837 0 -0.480717 -0.499559 0 -0.484821 -0.473649 0 
-0.46638 -0.472853 0 -0.463862 -0.484541 0 -0.454098 -0.499451 0 
-0.446607 -0.472976 0 -0.430103 -0.471823 0 -0.43069 -0.499506 0 
-0.42487 -0.484591 0 -0.407197 -0.494208 0 -0.410538 -0.466955 0 
-0.393843 -0.481294 0 -0.390142 -0.463442 0 -0.383858 -0.498924 0 
-0.360029 -0.498566 0 -0.372814 -0.478815 0 -0.36586 -0.46483 0 
-0.348814 -0.474127 0 -0.340284 -0.494042 0 -0.31928 -0.498597 0 
-0.334456 -0.469211 0 -0.319426 -0.475288 0 -0.607843 -0.45098 0 
-0.588235 -0.45098 0 -0.607843 -0.431373 0 -0.588235 -0.431373 0 
-0.568627 -0.45098 0 -0.54902 -0.45098 0 -0.568627 -0.431373 0 
-0.54902 -0.431373 0 -0.529412 -0.45098 0 -0.509804 -0.45098 0 
-0.529412 -0.431373 0 -0.509804 -0.431373 0 -0.472462 -0.452076 0 
-0.489565 -0.444172 0 -0.5 -0.463141 0 -0.5 -0.428559 0 
-0.470343 -0.431523 0 -0.456303 -0.450213 0 -0.441995 -0.442038 0 
-0.427509 -0.450594 0 -0.408374 -0.446305 0 -0.416134 -0.42924 0 
-0.397578 -0.426928 0 -0.386709 -0.445275 0 -0.371831 -0.439755 0 
-0.354416 -0.449481 0 -0.345987 -0.436085 0 -0.330604 -0.447584 0 
-0.326441 -0.427463 0 -0.3135 -0.450206 0 -0.607843 -0.411765 0 
-0.588235 -0.411765 0 -0.607843 -0.392157 0 -0.588235 -0.392157 0 
-0.568627 -0.411765 0 -0.54902 -0.411765 0 -0.568627 -0.392157 0 
-0.54902 -0.392157 0 -0.529412 -0.411765 0 -0.509804 -0.411765 0 
-0.529412 -0.392157 0 -0.509804 -0.392157 0 -0.482431 -0.417704 0 
-0.495969 -0.40032 0 -0.478923 -0.386252 0 -0.470033 -0.402041 0 
-0.434129 -0.424416 0 -0.457291 -0.420249 0 -0.445534 -0.408071 0 
-0.457992 -0.387063 0 -0.440077 -0.386655 0 -0.425039 -0.404871 0 
-0.40946 -0.404947 0 -0.389271 -0.411469 0 -0.388765 -0.39213 0 
-0.371943 -0.421466 0 -0.370737 -0.397246 0 -0.357129 -0.414741 0 
-0.346472 -0.389743 0 -0.340848 -0.413044 0 -0.3287 -0.398132 0 
-0.314408 -0.41372 0 -0.607843 -0.372549 0 -0.588235 -0.372549 0 
-0.607843 -0.352941 0 -0.588235 -0.352941 0 -0.568627 -0.372549 0 
-0.54902 -0.372549 0 -0.568627 -0.352941 0 -0.54902 -0.352941 0 
-0.529412 -0.372549 0 -0.509804 -0.372549 0 -0.529412 -0.352941 0 
-0.509804 -0.352941 0 -0.472851 -0.368374 0 -0.49735 -0.373009 0 
-0.4822 -0.355275 0 -0.450738 -0.36623 0 -0.458854 -0.349116 0 
-0.438168 -0.354959 0 -0.425686 -0.379833 0 -0.407291 -0.385422 0 
-0.420679 -0.361878 0 -0.406728 -0.353142 0 -0.395207 -0.36965 0 
-0.361728 -0.383372 0 -0.379078 -0.370444 0 -0.368858 -0.355986 0 
-0.352955 -0.359609 0 -0.33858 -0.3713 0 -0.329894 -0.35458 0 
-0.321369 -0.381616 0 -0.312846 -0.35394 0 -0.607843 -0.333333 0 
-0.588235 -0.333333 0 -0.607843 -0.313726 0 -0.588235 -0.313726 0 
-0.568627 -0.333333 0 -0.54902 -0.333333 0 -0.568627 -0.313726 0 
-0.54902 -0.313726 0 -0.529412 -0.333333 0 -0.509804 -0.333333 0 
-0.529412 -0.313726 0 -0.509804 -0.313726 0 -0.498529 -0.342758 0 
-0.468718 -0.335726 0 -0.482904 -0.329921 0 -0.484771 -0.311715 0 
-0.429105 -0.33682 0 -0.444175 -0.329048 0 -0.454613 -0.315818 0 
-0.390114 -0.345577 0 -0.410141 -0.331755 0 -0.422618 -0.317207 0 
-0.395148 -0.32239 0 -0.375979 -0.336238 0 -0.379138 -0.313832 0 
-0.3598 -0.328705 0 -0.349001 -0.313209 0 -0.312636 -0.33159 0 
-0.31339 -0.310031 0 -0.34595 -0.340392 0 -0.330263 -0.331747 0 
-0.331694 -0.310745 0 -0.607843 -0.294118 0 -0.588235 -0.294118 0 
-0.607843 -0.27451 0 -0.588235 -0.27451 0 -0.568627 -0.294118 0 
-0.54902 -0.294118 0 -0.568627 -0.27451 0 -0.54902 -0.27451 0 
-0.529412 -0.294118 0 -0.509804 -0.294118 0 -0.529412 -0.27451 0 
-0.509804 -0.27451 0 -0.495651 -0.273654 0 -0.476721 -0.2706 0 
-0.472753 -0.286442 0 -0.496541 -0.299426 0 -0.467728 -0.304631 0 
-0.437085 -0.281947 0 -0.453943 -0.2872 0 -0.439039 -0.305422 0 
-0.40738 -0.282272 0 -0.422651 -0.295847 0 -0.389693 -0.294138 0 
-0.403453 -0.303657 0 -0.384715 -0.270123 0 -0.372932 -0.284255 0 
-0.358133 -0.271835 0 -0.365 -0.303555 0 -0.349377 -0.288873 0 
-0.332618 -0.289924 0 -0.317522 -0.27178 0 -0.311819 -0.291582 0 
-0.607843 -0.254902 0 -0.588235 -0.254902 0 -0.607843 -0.235294 0 
-0.588235 -0.235294 0 -0.568627 -0.254902 0 -0.54902 -0.254902 0 
-0.568627 -0.235294 0 -0.54902 -0.235294 0 -0.529412 -0.254902 0 
-0.509804 -0.254902 0 -0.529412 -0.235294 0 -0.509804 -0.235294 0 
-0.480142 -0.249012 0 -0.498809 -0.249338 0 -0.459307 -0.265338 0 
-0.439857 -0.262363 0 -0.444463 -0.245057 0 -0.462361 -0.243248 0 
-0.427953 -0.237502 0 -0.420639 -0.268373 0 -0.400034 -0.262689 0 
-0.414574 -0.249832 0 -0.401231 -0.235388 0 -0.374008 -0.254056 0 
-0.386038 -0.240599 0 -0.363817 -0.238945 0 -0.349815 -0.256286 0 
-0.334609 -0.268194 0 -0.33298 -0.245555 0 -0.316854 -0.246216 0 
-0.607843 -0.215686 0 -0.588235 -0.215686 0 -0.607843 -0.196078 0 
-0.588235 -0.196078 0 -0.568627 -0.215686 0 -0.54902 -0.215686 0 
-0.568627 -0.196078 0 -0.54902 -0.196078 0 -0.529412 -0.215686 0 
-0.509804 -0.215686 0 -0.529412 -0.196078 0 -0.509804 -0.196078 0 
-0.477529 -0.230164 0 -0.492896 -0.220194 0 -0.465148 -0.202375 0 
-0.491672 -0.20209 0 -0.46147 -0.220523 0 -0.436181 -0.22186 0 
-0.446828 -0.210439 0 -0.411845 -0.220144 0 -0.390015 -0.214319 0 
-0.420423 -0.20488 0 -0.401856 -0.19961 0 -0.347617 -0.230433 0 
-0.374191 -0.220294 0 -0.359335 -0.211413 0 -0.379295 -0.1955 0 
-0.350466 -0.197784 0 -0.311367 -0.230713 0 -0.334659 -0.220806 0 
-0.324604 -0.209599 0 -0.310146 -0.201402 0 -0.607843 -0.176471 0 
-0.588235 -0.176471 0 -0.607843 -0.156863 0 -0.588235 -0.156863 0 
-0.568627 -0.176471 0 -0.54902 -0.176471 0 -0.568627 -0.156863 0 
-0.54902 -0.156863 0 -0.529412 -0.176471 0 -0.509804 -0.176471 0 
-0.529412 -0.156863 0 -0.509804 -0.156863 0 -0.471982 -0.190365 0 
-0.495068 -0.182179 0 -0.476637 -0.169873 0 -0.430254 -0.189916 0 
-0.444889 -0.184846 0 -0.443226 -0.16676 0 -0.46146 -0.171311 0 
-0.408363 -0.179425 0 -0.391673 -0.17861 0 -0.422829 -0.169626 0 
-0.395743 -0.155105 0 -0.3673 -0.185895 0 -0.380047 -0.162877 0 
-0.361862 -0.166343 0 -0.336331 -0.189096 0 -0.320358 -0.181847 0 
-0.345378 -0.171692 0 -0.326779 -0.160702 0 -0.607843 -0.137255 0 
-0.588235 -0.137255 0 -0.607843 -0.117647 0 -0.588235 -0.117647 0 
-0.568627 -0.137255 0 -0.54902 -0.137255 0 -0.568627 -0.117647 0 
-0.54902 -0.117647 0 -0.529412 -0.137255 0 -0.509804 -0.137255 0 
-0.529412 -0.117647 0 -0.509804 -0.117647 0 -0.481783 -0.153589 0 
-0.463631 -0.141067 0 -0.5 -0.148403 0 -0.480583 -0.134447 0 
-0.467626 -0.118443 0 -0.489193 -0.117932 0 -0.432258 -0.147767 0 
-0.448932 -0.143969 0 -0.42801 -0.128096 0 -0.445292 -0.122361 0 
-0.41214 -0.152915 0 -0.40877 -0.133466 0 -0.391113 -0.128524 0 
-0.378115 -0.140097 0 -0.361245 -0.144622 0 -0.369348 -0.120297 0 
-0.351091 -0.127082 0 -0.34288 -0.151165 0 -0.320206 -0.143865 0 
-0.334226 -0.129209 0 -0.319545 -0.119255 0 -0.607843 -0.0980392 0 
-0.588235 -0.0980392 0 -0.607843 -0.0784314 0 -0.588235 -0.0784314 0 
-0.568627 -0.0980392 0 -0.54902 -0.0980392 0 -0.568627 -0.0784314 0 
-0.54902 -0.0784314 0 -0.529412 -0.0980392 0 -0.509804 -0.0980392 0 
-0.529412 -0.0784314 0 -0.509804 -0.0784314 0 -0.4721 -0.102822 0 
-0.468386 -0.0808421 0 -0.498457 -0.100964 0 -0.485199 -0.0804186 0 
-0.443747 -0.106249 0 -0.433086 -0.0850861 0 -0.456597 -0.0919041 0 
-0.412928 -0.113184 0 -0.424353 -0.100997 0 -0.393583 -0.108858 0 
-0.402886 -0.0904026 0 -0.413927 -0.0769893 0 -0.386737 -0.0810823 0 
-0.377409 -0.102546 0 -0.356874 -0.103696 0 -0.367882 -0.0832128 0 
-0.348485 -0.0827503 0 -0.339893 -0.105828 0 -0.325819 -0.0969273 0 
-0.607843 -0.0588235 0 -0.588235 -0.0588235 0 -0.607843 -0.0392157 0 
[...]
POINT_DATA 3969
FIELD FieldData 5
id 1 3969 int
161 162 167 168 163 164 169 170 165 
166 171 172 107 108 123 124 109 110 
125 126 111 112 127 128 113 114 129 
130 115 116 131 132 173 174 179 180 
175 176 181 182 177 178 183 184 139 
140 155 156 141 142 157 158 143 144 
159 160 145 146 153 154 147 148 151 
152 185 186 191 192 187 188 193 194 
189 190 195 196 119 120 149 150 117 
118 137 138 105 106 135 136 103 104 
133 134 101 102 121 122 197 198 203 
204 199 200 205 206 201 202 207 208 
1013 1015 1499 2242 1019 1021 1759 2628 1023 
2645 2470 1832 1732 3387 1411 2483 771 1808 
54 263 2546 65 2799 209 210 215 216 
211 212 217 218 213 214 219 220 2788 
1016 1009 9 623 1779 531 280 1774 1793 
770 1504 1790 519 379 1029 640 334 221 
222 227 228 223 224 229 230 225 226 
231 232 622 1803 1798 292 1816 1780 1775 
610 1665 62 1809 759 1602 1307 85 1126 
1691 1580 1354 1682 233 234 239 240 235 
236 241 242 237 238 243 244 571 1529 
1794 632 1046 13 73 1683 791 1276 1076 
562 1486 88 1339 1535 1310 1094 1124 245 
246 251 252 247 248 253 254 249 250 
255 256 2487 1646 1776 2790 586 354 390 
1043 344 19 503 1519 1252 1265 1131 1401 
1386 1263 1294 1387 407 408 413 414 409 
410 415 416 411 412 417 418 614 2769 
2531 1592 369 1657 792 33 1109 1101 1151 
1324 1153 1290 1275 1643 1524 1456 1317 1328 
419 420 425 426 421 422 427 428 423 
424 429 430 2753 1017 320 1395 570 260 
556 1129 1266 1088 1267 1139 1104 1371 1372 
1431 1343 1331 431 432 437 438 433 434 
439 440 435 436 441 442 2748 96 564 
655 540 1576 1099 313 1305 333 1597 1400 
1359 1344 1482 1358 1347 1362 1329 1375 443 
444 449 450 445 446 451 452 447 448 
453 454 611 86 1778 1452 43 1614 1293 
1110 1121 1453 1325 1455 1496 1373 1346 1345 
1555 1374 455 456 461 462 457 458 463 
464 459 460 465 466 1058 1745 1022 2738 
36 782 1588 1051 1501 554 1295 1135 1118 
355 1423 1119 1321 1572 1441 1541 1478 467 
468 473 474 469 470 475 476 471 472 
477 478 1730 612 1020 654 330 1640 1610 
1599 1084 1147 1261 542 1090 506 1133 381 
1257 1320 1120 479 480 485 486 481 482 
487 488 483 484 489 490 1012 400 1725 
1815 270 781 301 1782 1647 1091 1059 1645 
592 1092 1134 1437 1281 1525 1304 491 492 
493 494 495 496 590 644 7 1018 520 
2806 1081 1651 1637 1593 1560 1323 1152 1556 
1396 1258 1149 1136 1351 657 658 663 664 
659 660 665 666 661 662 667 668 312 
1618 1763 1143 2471 63 1791 560 1598 1830 
523 1656 1633 1532 1140 314 1551 1253 1262 
284 1537 1365 669 670 675 676 671 672 
677 678 673 674 679 680 2674 34 2658 
2034 550 396 1438 1483 1611 1338 555 534 
304 1586 1689 1521 1108 1616 1506 1565 681 
682 687 688 683 684 689 690 685 686 
691 692 2725 1770 2706 1487 2721 1368 2770 
1761 1688 1547 1543 1639 1087 1264 1369 1070 
575 693 694 699 700 695 696 701 702 
697 698 703 704 1814 1622 501 1784 1813 
1728 2802 2517 545 55 510 1063 1155 1107 
45 1141 1123 1114 1399 705 706 711 712 
707 708 713 714 709 710 715 716 1726 
1533 1577 392 1661 53 1672 1797 1735 1049 
1792 530 1795 282 275 515 30 346 717 
718 723 724 719 720 725 726 721 722 
727 728 1986 646 2 1652 1 331 1738 
302 2678 1787 380 1590 1484 1743 66 97 
1760 1041 653 2805 1398 76 729 730 735 
736 731 732 737 738 733 734 739 740 
1729 1014 21 2018 1786 5 1764 1756 581 
1769 633 1054 772 1749 1800 1062 44 521 
1796 741 742 747 748 743 744 749 750 
745 746 751 752 4 31 41 61 1742 
6 11 1531 1741 1680 1080 1767 1518 1687 
1762 98 261 321 48 913 914 919 920 
915 916 921 922 917 918 923 924 257 
1677 91 2610 2580 1620 1664 1650 1723 1783 
512 1675 1746 532 391 361 1744 1765 1801 
925 926 931 932 927 928 933 934 929 
930 935 936 1693 357 596 2066 507 1383 
1098 71 2564 20 594 1033 2547 1503 8 
1038 1563 553 1514 393 937 938 943 944 
939 940 945 946 941 942 947 948 547 
397 1026 597 647 1128 557 317 1558 1607 
1397 1559 1673 22 514 10 1621 1517 1578 
1488 1035 949 950 955 956 951 952 957 
958 953 954 959 960 577 753 783 793 
527 72 558 348 617 327 627 537 297 
587 1028 598 377 1112 517 961 962 967 
968 963 964 969 970 965 966 971 972 
774 803 833 843 813 814 844 754 773 
784 845 823 804 846 847 764 834 848 
973 974 979 980 975 976 981 982 977 
978 983 984 859 860 875 876 861 862 
877 878 863 864 879 880 865 866 881 
882 867 868 883 884 985 986 991 992 
987 988 993 994 989 990 995 996 891 
892 907 908 893 894 909 910 895 896 
911 912 897 898 905 906 899 900 903 
904 997 998 1003 1004 999 1000 1005 1006 
1001 1002 1007 1008 871 872 901 902 869 
870 889 890 857 858 887 888 855 856 
885 886 853 854 873 874 1159 1160 1174 
1175 1161 1162 1176 1177 1163 1164 1178 1179 
1165 1166 1180 1181 1167 1168 1182 1183 1169 
1170 1184 1185 1171 1172 1186 1187 1173 1188 
1189 1190 1204 1205 1191 1192 1206 1207 1193 
1194 1208 1209 1195 1196 1210 1211 1197 1198 
1212 1213 1199 1200 1214 1215 1201 1202 1216 
1217 1203 1218 1219 1220 1234 1235 1221 1222 
1236 1237 1223 1224 1238 1239 1225 1226 1240 
1241 1227 1228 1242 1243 1229 1230 1244 1245 
1231 1232 1246 1247 1233 1248 2728 370 621 
642 1788 3229 3374 1818 652 1748 1158 1064 
582 2781 3462 84 1992 559 780 2818 1810 
1308 801 2795 2715 1833 2821 2808 1777 3384 
281 1799 600 574 27 1044 779 584 83 
1608 499 382 1658 271 1425 1737 1591 375 
758 1067 1073 1826 342 1827 651 1513 14 
82 339 1096 359 768 2796 802 1298 1277 
1581 1381 1069 1093 1674 1148 1125 1296 1596 
89 1095 522 1292 366 50 1546 1642 1516 
812 767 1306 1127 403 26 516 589 2534 
1824 566 1259 325 1117 345 1632 1573 283 
1520 356 1567 1089 406 552 1477 1409 336 
1507 1045 1260 1628 1550 1627 1146 1024 1071 
1717 99 265 790 799 1100 1138 1492 1357 
1538 1446 1554 1102 1370 285 1342 1568 1445 
1122 1327 1511 343 1144 1156 1540 266 1410 
376 1648 303 49 259 1789 757 1669 1341 
1569 1105 1416 1286 1318 1314 1349 1285 1384 
1271 1415 1603 1301 1315 1625 1424 1086 395 
573 1061 1582 513 1502 1353 67 524 2836 
290 268 1348 1302 1378 1332 1364 1333 1392 
1407 1287 1393 1270 1316 1601 1458 1350 1356 
1522 1313 525 1571 1366 335 262 1552 1736 
509 1663 620 70 93 349 399 789 1330 
1360 1377 1363 1376 1420 1406 1379 1334 1421 
1299 1429 1449 1367 1380 1594 1585 1718 1280 
1116 533 2274 498 329 28 1050 1485 1785 
1432 1493 1417 1389 1447 1361 1391 1402 1390 
1404 1451 1405 1481 1403 1312 1355 1570 1337 
1103 1553 1309 1322 402 264 1068 39 822 
1106 12 3209 1561 3303 778 1509 1539 1510 
1523 1448 1388 1418 1494 1436 1272 1490 1542 
1340 276 1085 535 363 78 1060 1804 593 
798 788 309 319 64 3427 388 1137 1480 
1336 1479 1508 1433 1443 1408 1495 1434 1422 
1268 1303 1526 1527 1587 1251 405 502 583 
1641 585 579 549 307 1459 1460 1757 3454 
1579 1461 1394 1419 1274 1450 1442 1435 1288 
1256 1300 1505 1249 383 1606 504 75 606 
561 528 800 1056 1462 1466 1463 1464 1467 
1468 1465 1469 1512 1289 1150 1273 1440 1311 
1335 1474 1255 1414 1352 1326 1557 305 1536 
316 17 1626 777 624 79 1805 1470 1471 
1472 1473 1282 1291 1534 1254 1284 1319 1283 
1497 1604 1624 1679 1055 1615 1154 269 1721 
1589 569 1694 1695 1699 1823 1696 1697 1700 
1701 1698 1702 1489 1491 1612 1385 1269 1476 
1457 1075 326 1279 286 77 386 1130 1584 
656 1690 29 626 1530 1703 1707 810 518 
1822 1704 1705 1708 1709 1706 1710 1574 1297 
1475 1430 60 1609 1635 1660 1644 306 544 
1113 296 1132 1040 1629 401 1053 1074 602 
809 1036 299 1711 1712 2840 811 1843 756 
1713 1828 1862 90 1428 505 1600 546 1564 
384 1631 374 394 1048 565 315 1145 56 
1617 1382 59 1427 353 1636 615 1595 619 
24 310 2830 1820 2852 819 2827 500 1115 
601 1042 1662 311 365 1613 37 340 404 
46 1077 1444 322 1751 625 1072 373 1684 
295 2423 1082 298 599 609 1841 832 2831 
760 1605 350 1039 1157 1634 526 364 385 
1528 1250 1562 68 47 603 1766 595 2595 
352 1655 1638 372 1011 81 497 1025 588 
1649 630 808 1848 3502 1079 38 1142 1678 
1566 591 576 1575 1066 511 1111 272 57 
635 2578 293 1583 1747 294 1733 1653 100 
1037 1623 1083 92 23 538 1821 797 2839 
551 40 643 1549 87 1078 1057 360 1781 
634 371 1544 1548 1654 563 1454 324 1722 
2338 536 1097 1052 267 300 32 308 650 
830 1844 821 796 2843 274 1715 273 58 
541 616 1716 1771 69 1685 1412 1754 332 
604 1670 362 543 1724 1666 1630 42 1030 
288 578 639 548 787 1819 2835 820 1772 
1739 605 1731 80 1740 1755 1659 1686 323 
1671 2503 1545 2629 3 15 1692 1032 1676 
1010 18 287 328 378 629 755 766 618 
828 1840 1065 1027 1500 1720 1515 1031 1278 
1667 1681 387 1034 52 1047 367 277 567 
318 568 278 649 608 776 815 806 816 
817 807 818 1838 1845 2841 1852 16 398 
25 51 508 337 347 607 368 648 338 
775 358 637 628 805 765 786 839 840 
841 831 842 1836 1835 1842 1839 2850 763 
794 850 849 638 795 824 851 835 852 
785 1849 825 1850 836 826 1851 837 1853 
827 1854 838 1855 829 1856 1857 1834 1858 
1859 1837 1860 1861 1863 1864 1865 1879 1880 
1866 1867 1881 1882 1868 1869 1883 1884 1870 
1871 1885 1886 1872 1873 1887 1888 1874 1875 
1889 1890 1876 1877 1891 1892 1878 1893 1894 
1895 1909 1910 1896 1897 1911 1912 1898 1899 
1913 1914 1900 1901 1915 1916 1902 1903 1917 
1918 1904 1905 1919 1920 1906 1907 1921 1922 
1908 1923 1924 1925 1939 1940 1926 1927 1941 
1942 1928 1929 1943 1944 1930 1931 1945 1946 
1932 1933 1947 1948 1934 1935 1949 1950 1936 
1937 1952 1951 1938 1953 2114 2115 2130 2131 
2116 2117 2132 2133 2118 2119 2134 2135 2120 
2121 2136 2137 2122 2123 2138 2139 2124 2125 
2140 2141 2126 2127 2142 2143 2128 2129 2144 
2145 2146 2147 2162 2163 2148 2149 2164 2165 
2150 2151 2166 2167 2152 2153 2168 2169 2154 
2155 2170 2171 2156 2157 2172 2173 2158 2159 
2174 2175 2160 2161 2176 2177 2178 2179 2194 
2195 2180 2181 2196 2197 2182 2183 2198 2199 
2184 2185 2200 2201 2186 2187 2202 2203 2188 
2189 2204 2205 2190 2191 2206 2207 2192 2193 
2208 2209 1954 74 631 2984 3348 1829 3137 
3482 2743 641 3388 3406 1807 291 3278 2053 
2779 769 3433 3188 3299 3367 2765 94 2976 
2791 645 2797 3128 2793 351 2814 279 2998 
3369 2651 2815 2592 3378 2816 389 2801 3279 
3474 1973 3010 2828 3473 2988 3253 3472 2373 
2605 580 3012 2809 2637 2607 1812 3464 1439 
3269 2051 2837 2544 2650 3334 2565 2455 3255 
3130 2259 2729 2012 2010 3165 3226 3145 2039 
2044 3035 3312 3057 2108 2626 3005 3343 3043 
3185 2030 258 1980 35 3407 529 1806 3447 
2418 2635 2985 3125 2036 3133 3284 2757 2506 
3004 2496 3282 2497 2112 2574 2321 2342 2101 
2424 2096 3212 2222 2272 2337 3195 2089 95 
1619 2826 3475 3415 1847 2502 2371 3316 2323 
2014 2028 3187 2599 3213 3134 2357 2403 3292 
2262 2100 2073 3204 2421 2103 2425 2367 2456 
2490 2293 2063 2405 2834 3048 3050 2825 3359 
3242 3144 3326 2016 2038 2017 3244 2075 2308 
2521 2557 2235 2282 3132 2302 2494 2300 2314 
2313 2297 2298 2318 2334 2400 289 3049 1987 
2975 3174 3003 3054 2419 2528 3214 2239 2283 
2047 2352 2555 2368 3183 2401 2250 2285 2336 
2280 2249 2310 2218 2265 2281 2295 2296 2328 
2299 2819 2623 3309 3154 3345 2669 2829 3398 
3015 2563 2763 3135 2301 2510 2284 2088 2234 
2393 2236 2266 2320 2248 2458 2394 2311 2426 
2264 2312 2360 2343 2327 3492 3158 3159 2067 
2972 1989 3483 2625 3034 3246 3014 3267 3045 
2288 2591 2341 2542 2351 2324 2279 2231 2233 
2378 2377 2395 2380 2345 2361 2330 2344 1994 
2986 3437 3465 3160 2643 3389 2618 1846 3216 
3060 2772 3403 2559 2275 2252 2585 3323 2254 
2420 2427 2379 2410 2411 2267 2346 2364 2347 
2362 2388 2331 2316 2349 3030 2430 2431 2432 
2433 2434 3352 2020 3227 2359 2005 2271 2384 
2479 2319 2511 2219 2247 2412 2397 2363 2413 
2348 2493 2398 2382 2435 2436 2440 2441 2437 
2438 2442 2443 2439 2444 2226 3169 3456 2718 
1965 2229 2416 2060 2113 2292 2566 2396 2353 
2303 2428 2381 2460 2326 2509 2365 2422 2429 
2389 2445 2446 2447 2448 2449 3349 2983 2099 
3276 2407 2526 3262 2255 2102 2294 2069 2459 
2461 2489 2477 2476 2492 2278 2680 2681 2686 
2687 2682 2683 2688 2689 2684 2685 2690 2824 
3476 3289 2029 2973 3365 2670 2062 2602 2577 
3233 2214 2335 2286 2369 2107 2253 2404 2090 
2507 2402 2263 2691 2692 2696 2697 2693 2694 
2698 2699 2817 2695 2700 3139 2616 2535 3205 
2007 2025 3126 2211 2537 2408 2571 3236 2505 
2055 2586 2589 2251 2105 2287 2304 3232 2237 
1825 2701 2702 2705 2832 3485 3484 2703 2704 
3466 3221 1976 2659 2762 3206 3297 3393 3016 
2061 2463 2004 2087 3202 2385 3002 3274 3222 
2268 2220 2064 2495 2833 3457 3280 3178 3438 
3189 3140 2339 2019 2649 2673 2609 3175 3176 
3337 3375 1997 2582 3235 2244 2575 3153 2071 
2049 2245 2570 2048 2059 2225 3314 2276 3324 
3199 3495 3170 3408 2987 2002 2978 1981 2485 
3053 2759 3275 3207 3423 3287 3193 2545 3332 
2097 2289 2080 2556 2072 2230 2065 2085 3263 
3293 3184 2083 3496 3179 3329 1974 3304 3009 
2486 2033 3335 2746 2498 3217 3024 2737 2766 
3037 2256 2023 2603 3052 3006 3313 3172 2608 
3224 2079 2798 3152 2257 3310 3477 3379 1990 
2549 3190 1977 1985 2666 3382 2468 2484 2466 
3286 2719 2011 3376 3422 2013 2747 572 3019 
3394 2993 2820 3026 3396 2543 2604 2536 1993 
2078 2037 3046 3493 3219 3494 3428 3180 2488 
2619 2999 2452 2655 2642 3196 3336 2749 3366 
2751 3395 3356 3166 1964 1995 3177 2773 2764 
3307 3355 3228 3136 1719 3399 2862 3419 3281 
3311 1982 3300 2990 2981 2667 2639 2356 2630 
2516 2451 2713 2515 3266 2730 3354 3306 2787 
2778 2716 3412 2774 2050 2771 3247 2735 2745 
3413 2022 3486 2845 3448 2847 3400 3250 3370 
3230 3261 3181 3000 1975 2354 2962 2653 3021 
3302 3344 2597 3392 2648 3372 2641 2594 3373 
2707 2453 3402 2514 2499 2846 3506 3504 3467 
3487 3320 3409 3390 3449 3360 3301 3168 2989 
3330 3161 3171 3210 2969 3191 1413 2003 2726 
3131 2390 3285 3051 1972 2646 2624 2615 2842 
2856 2844 2849 3497 3513 3498 3478 3458 3505 
3439 3468 3499 3489 3429 3200 3410 3290 3350 
3270 3421 3040 3251 3430 3341 3391 3271 3240 
3151 2851 2838 2853 2848 2854 2855 3512 3503 
2857 2858 3514 2859 3515 2860 3516 3507 2861 
3517 2863 3488 3508 2864 2865 3518 3509 3469 
3522 3523 3519 3459 3510 3524 3525 3479 2866 
2867 2882 2883 2868 2869 2884 2885 2870 2871 
2886 2887 2872 2873 2888 2889 2874 2875 2890 
2891 2876 2877 2892 2893 2878 2879 2894 2895 
2880 2881 2896 2897 2898 2899 2914 2915 2900 
2901 2916 2917 2902 2903 2918 2919 2904 2905 
2920 2921 2906 2907 2922 2923 2908 2909 2924 
2925 2910 2911 2926 2927 2912 2913 2928 2929 
2930 2931 2946 2947 2932 2933 2948 2949 2934 
2935 2950 2951 2936 2937 2952 2953 2938 2939 
2954 2955 2940 2941 2956 2957 2959 2958 2943 
2942 2944 2960 2961 2945 3062 3063 3078 3079 
3064 3065 3080 3081 3066 3067 3082 3083 3068 
3069 3084 3085 3070 3071 3086 3087 3592 3593 
3598 3599 3594 3595 3600 3601 3596 3597 3602 
3603 3094 3095 3110 3111 3096 3097 3112 3113 
3098 3099 3114 3115 3100 3101 3116 3117 3102 
3103 3118 3119 3604 3605 3610 3611 3606 3607 
3612 3613 3608 3609 3614 3615 3090 3091 3120 
3121 3088 3089 3108 3109 3076 3077 3106 3107 
3074 3075 3104 3105 3072 3073 3092 3093 3616 
3617 3622 3623 3618 3619 3624 3625 3620 3621 
3626 3627 1752 2307 1831 1758 3425 1768 2810 
2807 2731 2800 1727 2785 2742 2727 1955 1668 
1956 2662 2454 1961 1962 1967 3628 3629 3634 
3635 3630 3631 3636 3637 3632 3633 3638 3639 
3272 3259 3446 2812 2823 2068 539 2560 3318 
3032 2995 3056 2783 3368 3377 2644 1959 2710 
1968 3640 3641 3646 3647 3642 3643 3648 3649 
3644 3645 3650 3651 2009 3245 2046 2057 3339 
2656 3157 3362 3455 3333 3358 3417 3260 3129 
2994 1979 3397 3215 3319 1957 2782 1958 2548 
3652 3653 3658 3659 3654 3655 3660 3661 3656 
3657 3662 3663 2106 3044 2221 3042 2665 2086 
3364 2472 3059 3418 2613 2614 2638 3149 761 
2811 3249 2082 3664 3665 3670 3671 3666 3667 
3672 3673 3668 3669 3674 3675 2572 2375 2277 
2992 2223 3013 2228 3436 3353 3383 2979 2043 
3028 3338 2098 3198 3424 2963 3676 3677 3682 
3683 3679 3685 3684 3678 3680 3687 3686 3681 
2241 2358 2529 2350 2474 2480 2015 2224 2464 
3264 2054 2040 2593 2081 1811 2664 2212 3443 
1498 3416 3442 3688 3689 3694 3695 3690 3691 
3696 3697 3692 3693 3698 3699 2399 2387 2366 
2317 2554 2270 2540 2058 2094 3025 3296 3203 
3163 1983 2045 2243 2767 2822 1817 3700 3701 
3706 3707 3702 3703 3708 3709 3704 3705 3710 
3711 2415 2522 2333 2329 2553 2240 3283 3182 
2215 2406 2600 2391 2636 3164 2567 3223 3138 
2654 1714 3712 3713 3718 3719 3714 3715 3720 
3721 3716 3717 3722 3723 2541 2332 2525 2315 
2273 2325 3237 2091 2309 2077 2741 2261 3463 
2803 2786 2813 3414 3724 3725 3730 3731 3726 
3727 3732 3733 3728 3729 3734 3735 2383 2462 
2414 2478 3192 2246 2539 2111 2508 2568 2093 
3315 2520 3124 2997 3426 3173 3295 2001 3452 
3218 2736 3736 3737 3742 3743 3738 3739 3744 
3745 3740 3741 3746 3747 2523 2473 2491 2076 
2457 2269 2092 3186 2588 2291 2500 3162 3047 
3294 2668 3258 2006 2732 2622 1960 3748 3749 
3754 3755 3750 3751 3756 3757 3752 3753 3758 
3759 2524 2475 2392 2409 2074 2109 3023 2217 
2671 2660 2027 3142 2501 2031 2776 3435 1970 
2768 3760 3761 3766 3767 3762 3763 3768 3769 
3764 3765 3770 3771 2110 2376 2260 3305 2386 
3033 2070 3363 2551 2041 3022 3254 3445 3146 
3277 3444 1773 3772 3773 3774 3775 3776 3777 
2216 2238 2340 2305 2104 2606 2032 2581 2026 
2213 2552 2583 3156 3122 3017 3147 3148 1753 
2744 1999 2258 3778 3779 3784 3785 3780 3781 
3786 3787 3782 3783 3788 3789 2370 2538 2232 
2417 2504 2558 2465 2527 2569 2996 2532 1998 
3243 3434 2000 762 1802 3385 3790 3791 3796 
3797 3792 3793 3798 3799 3794 3795 3800 3801 
2481 2573 2561 3155 2587 3123 2584 3322 2640 
2579 3039 3029 3058 3298 3038 3036 2754 2780 
2708 2530 3802 3803 3808 3809 3804 3805 3810 
3811 3806 3807 3812 3813 2056 2652 2513 2042 
3027 2021 2633 3225 2550 2227 2008 1991 2355 
3234 3208 3386 2777 2761 2717 2740 2965 3814 
3815 3820 3821 3816 3817 3822 3823 3818 3819 
3824 3825 3342 3194 2095 3018 3143 2784 3308 
2601 3453 3007 3239 3008 3268 3357 1963 2469 
2733 2723 2966 3826 3827 3832 3833 3828 3829 
3834 3835 3830 3831 3836 3837 3273 2024 341 
2576 3055 3252 2631 1734 3256 3257 2450 613 
2596 2621 2739 2967 2970 3838 3839 3844 3845 
3840 3841 3846 3847 3842 3843 3848 3849 3167 
2620 3288 2374 2794 2617 3347 3248 3328 2792 
2804 3127 2982 3327 2755 2677 2712 2971 2968 
2991 3011 3850 3851 3856 3857 3852 3853 3858 
3859 3854 3855 3860 3861 2512 1996 2722 2758 
2750 3405 3197 2752 1426 2775 3404 2714 2632 
2533 2084 2661 2709 3031 3041 3862 3863 3868 
3869 3870 3865 3864 3871 3866 3873 3872 3867 
1750 2724 636 2789 2756 3432 2562 3317 2290 
2734 2964 3001 2679 2467 3201 1969 3061 3325 
3874 3875 3880 3881 3876 3877 3882 3883 3878 
3879 3884 3885 3346 2676 3238 2711 2612 2760 
2657 2306 2720 2482 2647 2672 2210 2977 1971 
3211 2322 3231 3291 2590 3331 3886 3887 3892 
3893 3888 3889 3894 3895 3890 3891 3896 3897 
2372 1966 2598 3265 1988 2663 2519 2627 2611 
1984 1978 2675 2974 2035 3321 3381 2518 3411 
3898 3899 3904 3905 3900 3901 3906 3907 3902 
3903 3908 3909 3340 3020 3401 2052 3420 3361 
2634 3371 3220 3441 3141 3241 3150 3351 3461 
2980 3431 3471 3481 3910 3911 3916 3917 3912 
3913 3918 3919 3914 3915 3920 3921 3526 3480 
3450 3451 3527 3520 3528 3490 3460 3529 3500 
3380 3470 3530 3511 3440 3491 3501 3521 3531 
3922 3923 3928 3929 3924 3925 3930 3931 3926 
3927 3932 3933 3532 3533 3548 3549 3534 3535 
3550 3551 3536 3537 3552 3553 3538 3539 3554 
3555 3540 3541 3556 3557 3934 3935 3940 3941 
3936 3937 3942 3943 3938 3939 3944 3945 3564 
3565 3580 3581 3566 3567 3582 3583 3568 3569 
3584 3585 3570 3571 3586 3587 3572 3573 3588 
3589 3946 3947 3952 3953 3948 3949 3954 3955 
3950 3951 3956 3957 3560 3561 3590 3591 3558 
3559 3578 3579 3546 3547 3576 3577 3544 3545 
3574 3575 3542 3543 3562 3563 3958 3959 3964 
3965 3960 3961 3966 3967 3969 3962 3968 3963 

C_[0] 1 3969 double
0 0 0 0 0 0 0 0 0 
0 0 0 0 0 0 0 0 0 
0 0 0 0 0 0 0 0 0 
0 0 0 0 0 0 0 0 0 
0 0 0 0 0 0 0 0 0 
0 0 0 0 0 0 0 0 0 
0 0 0 0 0 0 0 0 0 
0 0 0 0 0 0 0 0 0 
0 0 0 0 0 0 0 0 0 
0 0 0 0 0 0 0 0 0 
0 0 0 0 0 0 0 0 0 
0 0 0 0 0 0 0 0 0 
0.00140964 0.00274691 0.00943156 0.0170472 0.0120847 0.00530368 0.0250756 0.033301 0.00860727 
0.0225709 0.0161733 0.0498795 0.0379643 0.0678911 0.0148601 0.0165496 0.0546071 0.0832158 
0.0756014 0.0267838 0.0197877 0.09268 0.0883692 0 0 0 0 
0 0 0 0 0 0 0 0 0.0253232 
0.013992 0.00433131 0.00826901 0.0373911 0.0375183 0.0562658 0.0595638 0.0792874 0.0940366 
0.116057 0.1008 0.122802 0.122229 0.153297 0.148179 0.190239 0.152796 0 
0 0 0 0 0 0 0 0 0 