# vtk DataFile Version 3.0
Generated by LAMMPS
ASCII
DATASET POLYDATA
POINTS 3969 float
-0.607843 -0.607843 0 -0.588235 -0.607843 0 -0.607843 -0.588235 0 
-0.588235 -0.588235 0 -0.568627 -0.607843 0 -0.54902 -0.607843 0 
-0.568627 -0.588235 0 -0.54902 -0.588235 0 -0.529412 -0.607843 0 
-0.509804 -0.607843 0 -0.529412 -0.588235 0 -0.509804 -0.588235 0 
-0.490196 -0.607843 0 -0.470588 -0.607843 0 -0.490196 -0.588235 0 
-0.470588 -0.588235 0 -0.45098 -0.607843 0 -0.431373 -0.607843 0 
-0.45098 -0.588235 0 -0.431373 -0.588235 0 -0.411765 -0.607843 0 
-0.392157 -0.607843 0 -0.411765 -0.588235 0 -0.392157 -0.588235 0 
-0.372549 -0.607843 0 -0.352941 -0.607843 0 -0.372549 -0.588235 0 
-0.352941 -0.588235 0 -0.333333 -0.607843 0 -0.313726 -0.607843 0 
-0.333333 -0.588235 0 -0.313726 -0.588235 0 -0.607843 -0.568627 0 
-0.588235 -0.568627 0 -0.607843 -0.54902 0 -0.588235 -0.54902 0 
-0.568627 -0.568627 0 -0.54902 -0.568627 0 -0.568627 -0.54902 0 
-0.54902 -0.54902 0 -0.529412 -0.568627 0 -0.509804 -0.568627 0 
-0.529412 -0.54902 0 -0.509804 -0.54902 0 -0.490196 -0.568627 0 
-0.470588 -0.568627 0 -0.490196 -0.54902 0 -0.470588 -0.54902 0 
-0.45098 -0.568627 0 -0.431373 -0.568627 0 -0.45098 -0.54902 0 
-0.431373 -0.54902 0 -0.411765 -0.568627 0 -0.392157 -0.568627 0 
-0.411765 -0.54902 0 -0.392157 -0.54902 0 -0.372549 -0.568627 0 
-0.352941 -0.568627 0 -0.352941 -0.54902 0 -0.372549 -0.54902 0 
-0.333333 -0.568627 0 -0.313726 -0.568627 0 -0.313726 -0.54902 0 
-0.333333 -0.54902 0 -0.607843 -0.529412 0 -0.588235 -0.529412 0 
-0.607843 -0.509804 0 -0.588235 -0.509804 0 -0.568627 -0.529412 0 
-0.54902 -0.529412 0 -0.568627 -0.509804 0 -0.54902 -0.509804 0 
-0.529412 -0.529412 0 -0.509804 -0.529412 0 -0.529412 -0.509804 0 
-0.509804 -0.509804 0 -0.470588 -0.509804 0 -0.490196 -0.509804 0 
-0.470588 -0.529412 0 -0.490196 -0.529412 0 -0.431373 -0.509804 0 
-0.45098 -0.509804 0 -0.431373 -0.529412 0 -0.45098 -0.529412 0 
-0.392157 -0.509804 0 -0.411765 -0.509804 0 -0.392157 -0.529412 0 
-0.411765 -0.529412 0 -0.352941 -0.509804 0 -0.372549 -0.509804 0 
-0.352941 -0.529412 0 -0.372549 -0.529412 0 -0.313726 -0.509804 0 
-0.333333 -0.509804 0 -0.313726 -0.529412 0 -0.333333 -0.529412 0 
-0.607843 -0.490196 0 -0.588235 -0.490196 0 -0.607843 -0.470588 0 
-0.588235 -0.470588 0 -0.568627 -0.490196 0 -0.54902 -0.490196 0 
-0.568627 -0.470588 0 -0.54902 -0.470588 0 -0.529412 -0.490196 0 
-0.509804 -0.490196 0 -0.529412 -0.470588 0 -0.509804 -0.470588 0 
-0.5 -0.491834 0 -0.479162 -0.5 0 -0.484421 -0.476578 0 
-0.461837 -0.475098 0 -0.461761 -0.485865 0 -0.449149 -0.5 0 
-0.441412 -0.477014 0 -0.424012 -0.499999 0 -0.414801 -0.48532 0 
-0.423772 -0.475044 0 -0.398809 -0.496233 0 -0.401375 -0.469827 0 
-0.375597 -0.498601 0 -0.384935 -0.475609 0 -0.349553 -0.498886 0 
-0.36689 -0.482739 0 -0.354017 -0.472614 0 -0.329393 -0.495006 0 
-0.338636 -0.468805 0 -0.322798 -0.47647 0 -0.607843 -0.45098 0 
-0.588235 -0.45098 0 -0.607843 -0.431373 0 -0.588235 -0.431373 0 
-0.568627 -0.45098 0 -0.54902 -0.45098 0 -0.568627 -0.431373 0 
-0.54902 -0.431373 0 -0.529412 -0.45098 0 -0.509804 -0.45098 0 
-0.529412 -0.431373 0 -0.509804 -0.431373 0 -0.476465 -0.458635 0 
-0.489409 -0.443643 0 -0.5 -0.463141 0 -0.5 -0.42856 0 
-0.471195 -0.428493 0 -0.463779 -0.447122 0 -0.44815 -0.45666 0 
-0.453434 -0.428439 0 -0.433191 -0.449667 0 -0.435612 -0.429655 0 
-0.416662 -0.455375 0 -0.419445 -0.426641 0 -0.405019 -0.440701 0 
-0.389504 -0.449506 0 -0.390655 -0.42548 0 -0.374211 -0.459683 0 
-0.373857 -0.435314 0 -0.358078 -0.448881 0 -0.34982 -0.435151 0 
-0.334807 -0.450733 0 -0.332771 -0.424323 0 -0.320484 -0.443434 0 
-0.607843 -0.411765 0 -0.588235 -0.411765 0 -0.607843 -0.392157 0 
-0.588235 -0.392157 0 -0.568627 -0.411765 0 -0.54902 -0.411765 0 
-0.568627 -0.392157 0 -0.54902 -0.392157 0 -0.529412 -0.411765 0 
-0.509804 -0.411765 0 -0.529412 -0.392157 0 -0.509804 -0.392157 0 
-0.484577 -0.416087 0 -0.482002 -0.398747 0 -0.497903 -0.392121 0 
-0.463978 -0.403822 0 -0.448905 -0.406977 0 -0.431999 -0.405367 0 
-0.406595 -0.413792 0 -0.41908 -0.396404 0 -0.400351 -0.392969 0 
-0.366357 -0.416997 0 -0.384578 -0.407072 0 -0.373523 -0.392975 0 
-0.355591 -0.391231 0 -0.351211 -0.412483 0 -0.339896 -0.391 0 
-0.327614 -0.408572 0 -0.607843 -0.372549 0 -0.588235 -0.372549 0 
-0.607843 -0.352941 0 -0.588235 -0.352941 0 -0.568627 -0.372549 0 
-0.54902 -0.372549 0 -0.568627 -0.352941 0 -0.54902 -0.352941 0 
-0.529412 -0.372549 0 -0.509804 -0.372549 0 -0.529412 -0.352941 0 
-0.509804 -0.352941 0 -0.474028 -0.381394 0 -0.482495 -0.367605 0 
-0.496246 -0.358328 0 -0.465973 -0.351822 0 -0.441569 -0.383179 0 
-0.456212 -0.377834 0 -0.451809 -0.358511 0 -0.4355 -0.350567 0 
-0.428245 -0.373619 0 -0.411992 -0.372879 0 -0.419401 -0.349474 0 
-0.400325 -0.357385 0 -0.390788 -0.378268 0 -0.381965 -0.358879 0 
-0.369684 -0.372687 0 -0.36449 -0.347502 0 -0.352689 -0.364815 0 
-0.323194 -0.384267 0 -0.337056 -0.366558 0 -0.319062 -0.36322 0 
-0.607843 -0.333333 0 -0.588235 -0.333333 0 -0.607843 -0.313726 0 
-0.588235 -0.313726 0 -0.568627 -0.333333 0 -0.54902 -0.333333 0 
-0.568627 -0.313726 0 -0.54902 -0.313726 0 -0.529412 -0.333333 0 
-0.509804 -0.333333 0 -0.529412 -0.313726 0 -0.509804 -0.313726 0 
-0.479211 -0.341779 0 -0.478529 -0.324118 0 -0.496715 -0.327239 0 
-0.445688 -0.333991 0 -0.460827 -0.32628 0 -0.448888 -0.307661 0 
-0.432019 -0.32239 0 -0.410388 -0.33412 0 -0.417731 -0.316043 0 
-0.394017 -0.318476 0 -0.390972 -0.337691 0 -0.354838 -0.329212 0 
-0.374405 -0.33116 0 -0.368429 -0.309321 0 -0.343025 -0.343921 0 
-0.315555 -0.323665 0 -0.334294 -0.321787 0 -0.324925 -0.343262 0 
-0.349178 -0.307998 0 -0.607843 -0.294118 0 -0.588235 -0.294118 0 
-0.607843 -0.27451 0 -0.588235 -0.27451 0 -0.568627 -0.294118 0 
-0.54902 -0.294118 0 -0.568627 -0.27451 0 -0.54902 -0.27451 0 
-0.529412 -0.294118 0 -0.509804 -0.294118 0 -0.529412 -0.27451 0 
-0.509804 -0.27451 0 -0.482996 -0.280974 0 -0.498631 -0.295064 0 
-0.48054 -0.299692 0 -0.465103 -0.301665 0 -0.460846 -0.279476 0 
-0.445041 -0.280163 0 -0.435132 -0.297776 0 -0.402116 -0.266968 0 
-0.424805 -0.272276 0 -0.418367 -0.289441 0 -0.393719 -0.282616 0 
-0.40515 -0.300021 0 -0.379092 -0.274372 0 -0.361284 -0.268393 0 
-0.364933 -0.288999 0 -0.38393 -0.302902 0 -0.335054 -0.275071 0 
-0.346346 -0.288526 0 -0.318495 -0.288399 0 -0.328046 -0.303338 0 
-0.607843 -0.254902 0 -0.588235 -0.254902 0 -0.607843 -0.235294 0 
-0.588235 -0.235294 0 -0.568627 -0.254902 0 -0.54902 -0.254902 0 
-0.568627 -0.235294 0 -0.54902 -0.235294 0 -0.529412 -0.254902 0 
-0.509804 -0.254902 0 -0.529412 -0.235294 0 -0.509804 -0.235294 0 
-0.476729 -0.262827 0 -0.463405 -0.258513 0 -0.495221 -0.259814 0 
-0.476531 -0.228588 0 -0.495828 -0.235894 0 -0.464235 -0.233086 0 
-0.438916 -0.26081 0 -0.448667 -0.244978 0 -0.426472 -0.241818 0 
-0.413374 -0.253809 0 -0.412091 -0.229842 0 -0.396399 -0.235553 0 
-0.387283 -0.252053 0 -0.37259 -0.248152 0 -0.356584 -0.239367 0 
-0.319019 -0.266656 0 -0.347898 -0.258112 0 -0.33205 -0.248095 0 
-0.338714 -0.229589 0 -0.314812 -0.246307 0 -0.607843 -0.215686 0 
-0.588235 -0.215686 0 -0.607843 -0.196078 0 -0.588235 -0.196078 0 
-0.568627 -0.215686 0 -0.54902 -0.215686 0 -0.568627 -0.196078 0 
-0.54902 -0.196078 0 -0.529412 -0.215686 0 -0.509804 -0.215686 0 
-0.529412 -0.196078 0 -0.509804 -0.196078 0 -0.471348 -0.208153 0 
-0.489959 -0.212492 0 -0.496147 -0.194732 0 -0.442569 -0.225988 0 
-0.427248 -0.216506 0 -0.453508 -0.209617 0 -0.436931 -0.199492 0 
-0.412561 -0.201826 0 -0.398762 -0.208713 0 -0.383697 -0.221327 0 
-0.368372 -0.22391 0 -0.381365 -0.196942 0 -0.365287 -0.200645 0 
-0.34975 -0.214101 0 -0.323382 -0.22009 0 -0.336013 -0.201466 0 
-0.319521 -0.199315 0 -0.607843 -0.176471 0 -0.588235 -0.176471 0 
-0.607843 -0.156863 0 -0.588235 -0.156863 0 -0.568627 -0.176471 0 
-0.54902 -0.176471 0 -0.568627 -0.156863 0 -0.54902 -0.156863 0 
-0.529412 -0.176471 0 -0.509804 -0.176471 0 -0.529412 -0.156863 0 
-0.509804 -0.156863 0 -0.473209 -0.186584 0 -0.467012 -0.169118 0 
-0.491397 -0.177187 0 -0.480903 -0.155747 0 -0.455414 -0.187749 0 
-0.441 -0.175065 0 -0.426211 -0.159352 0 -0.447312 -0.158372 0 
-0.424018 -0.184651 0 -0.393505 -0.184973 0 -0.409033 -0.175852 0 
-0.396529 -0.161186 0 -0.35109 -0.187859 0 -0.367072 -0.176129 0 
-0.37935 -0.165901 0 -0.356901 -0.15772 0 -0.3427 -0.170905 0 
-0.327296 -0.176598 0 -0.311395 -0.176136 0 -0.314971 -0.153994 0 
-0.607843 -0.137255 0 -0.588235 -0.137255 0 -0.607843 -0.117647 0 
-0.588235 -0.117647 0 -0.568627 -0.137255 0 -0.54902 -0.137255 0 
-0.568627 -0.117647 0 -0.54902 -0.117647 0 -0.529412 -0.137255 0 
-0.509804 -0.137255 0 -0.529412 -0.117647 0 -0.509804 -0.117647 0 
-0.466475 -0.14739 0 -0.496799 -0.147522 0 -0.472102 -0.114845 0 
-0.487592 -0.129275 0 -0.43235 -0.139853 0 -0.452322 -0.13776 0 
-0.459725 -0.120849 0 -0.44053 -0.114424 0 -0.412562 -0.148824 0 
-0.423839 -0.124973 0 -0.402119 -0.133805 0 -0.406175 -0.112639 0 
-0.388651 -0.119329 0 -0.384884 -0.142472 0 -0.369786 -0.141498 0 
-0.347616 -0.141777 0 -0.359027 -0.124045 0 -0.371313 -0.112332 0 
-0.331434 -0.149611 0 -0.342993 -0.115689 0 -0.32754 -0.129701 0 
-0.316932 -0.116149 0 -0.607843 -0.0980392 0 -0.588235 -0.0980392 0 
-0.607843 -0.0784314 0 -0.588235 -0.0784314 0 -0.568627 -0.0980392 0 
-0.54902 -0.0980392 0 -0.568627 -0.0784314 0 -0.54902 -0.0784314 0 
-0.529412 -0.0980392 0 -0.509804 -0.0980392 0 -0.529412 -0.0784314 0 
-0.509804 -0.0784314 0 -0.4927 -0.114012 0 -0.477262 -0.0883062 0 
-0.493772 -0.0933282 0 -0.42435 -0.103295 0 -0.443362 -0.0953685 0 
-0.461046 -0.0950655 0 -0.428887 -0.0798195 0 -0.453896 -0.0760102 0 
-0.391263 -0.098117 0 -0.410286 -0.0885624 0 -0.395569 -0.0780351 0 
-0.373424 -0.0914286 0 -0.356713 -0.09585 0 -0.348086 -0.079559 0 
-0.334432 -0.101387 0 -0.317619 -0.0961469 0 -0.332872 -0.0753018 0 
-0.607843 -0.0588235 0 -0.588235 -0.0588235 0 -0.607843 -0.0392157 0 
-0.588235 -0.0392157 0 -0.568627 -0.0588235 0 -0.54902 -0.0588235 0 
[...]
POINT_DATA 3969
FIELD FieldData 5
id 1 3969 int
161 162 167 168 163 164 169 170 165 
166 171 172 107 108 123 124 109 110 
125 126 111 112 127 128 113 114 129 
130 115 116 131 132 173 174 179 180 
175 176 181 182 177 178 183 184 139 
140 155 156 141 142 157 158 143 144 
159 160 145 146 153 154 147 148 151 
152 185 186 191 192 187 188 193 194 
189 190 195 196 119 120 149 150 117 
118 137 138 105 106 135 136 103 104 
133 134 101 102 121 122 197 198 203 
204 199 200 205 206 201 202 207 208 
1013 1015 1499 2242 1019 1021 1759 1023 2645 
2628 2470 280 1411 1832 2483 1732 3387 263 
1504 771 209 210 215 216 211 212 217 
218 213 214 219 220 2788 1016 1009 9 
622 623 1779 1798 1780 292 531 610 1775 
1816 1665 1774 62 1793 1809 770 1683 759 
221 222 227 228 223 224 229 230 225 
226 231 232 1803 1529 2487 1794 571 1046 
632 390 354 73 13 586 19 791 344 
1276 233 234 239 240 235 236 241 242 
237 238 243 244 1776 2790 1592 2769 1646 
369 2531 320 792 1657 570 1395 33 1129 
1101 1088 1109 503 1324 1151 245 246 251 
252 247 248 253 254 249 250 255 256 
2753 2748 614 260 540 43 1099 1576 1452 
333 556 1267 313 1597 1266 1139 1104 1153 
1305 407 408 413 414 409 410 415 416 
411 412 417 418 611 1017 96 564 1293 
1051 1614 1135 1501 1588 1295 1453 1325 1496 
1121 1110 1455 1482 1344 1359 419 420 425 
426 421 422 427 428 423 424 429 430 
1778 1745 655 1058 86 36 554 330 1084 
1599 1261 1147 1118 355 1423 1358 1373 1555 
1572 1346 431 432 437 438 433 434 439 
440 435 436 441 442 1730 2738 1022 1640 
542 1610 270 1647 1090 506 1119 381 1133 
1321 1374 1541 1441 443 444 449 450 445 
446 451 452 447 448 453 454 612 781 
782 654 1815 301 1637 520 1091 1645 1059 
1092 1320 1257 592 1134 1120 1478 1539 1510 
455 456 461 462 457 458 463 464 459 
460 465 466 1782 1020 590 400 1560 2806 
1081 1651 1593 1323 1556 314 1396 1152 1281 
1437 1304 1351 1137 1525 1336 1479 467 468 
473 474 469 470 475 476 471 472 477 
478 1012 644 1725 1633 1830 1598 1656 560 
1551 1532 1140 1149 1136 1258 1394 1419 1512 
479 480 485 486 481 482 487 488 483 
484 489 490 1143 2471 7 1018 1438 1791 
63 1611 523 534 1483 304 1365 1253 284 
1537 1274 1289 1450 1273 491 492 493 494 
495 496 1618 1763 312 396 550 1338 34 
1689 555 1521 1688 1262 1108 1586 1291 1616 
1534 1489 1254 1282 1150 657 658 663 664 
659 660 665 666 661 662 667 668 2034 
2658 2674 1547 2770 1368 2721 1543 1639 1264 
1087 1369 1070 1565 1506 1612 1284 1491 669 
670 675 676 671 672 677 678 673 674 
679 680 1770 2725 2706 1761 545 1813 510 
1728 1063 1155 1107 55 1141 575 1114 1574 
1297 1430 681 682 687 688 683 684 689 
690 685 686 691 692 1814 1487 501 1622 
2802 2517 1797 1672 45 1049 1792 1123 1399 
275 1475 1600 90 1428 693 694 699 700 
695 696 701 702 697 698 703 704 1784 
392 1533 1726 1661 53 380 331 1795 1735 
530 66 30 515 282 346 653 505 500 
1115 601 705 706 711 712 707 708 713 
714 709 710 715 716 1986 646 1577 2 
302 1738 1484 1590 1760 1743 97 2805 1041 
1398 76 760 1042 1605 717 718 723 724 
719 720 725 726 721 722 727 728 2678 
1652 1729 1 1787 1756 2018 1769 1786 1764 
633 772 581 1062 1749 44 521 350 1566 
1079 729 730 735 736 731 732 737 738 
733 734 739 740 1014 5 4 11 21 
31 1742 6 1767 1054 1680 1080 1800 261 
1762 1796 321 38 1549 40 741 742 747 
748 743 744 749 750 745 746 751 752 
41 61 91 1531 1741 512 1664 2610 1687 
1518 1783 48 532 391 361 1801 551 98 
273 913 914 919 920 915 916 921 922 
917 918 923 924 357 257 1693 1677 1383 
2580 1620 1650 2564 1503 1675 1723 2547 1746 
1744 553 1765 1772 1715 58 925 926 931 
932 927 928 933 934 929 930 935 936 
596 2066 507 547 1098 71 1128 20 594 
8 1033 1673 1038 1563 1514 393 1517 1739 
937 938 943 944 939 940 945 946 941 
942 947 948 397 1026 597 647 1607 557 
317 1558 1397 327 1559 22 1621 514 10 
1578 1488 1035 1027 949 950 955 956 951 
952 957 958 953 954 959 960 577 753 
783 793 527 72 617 558 348 627 537 
297 587 1028 598 377 1112 517 51 961 
962 967 968 963 964 969 970 965 966 
971 972 774 803 833 843 813 773 814 
844 754 784 823 845 804 846 764 847 
638 834 763 848 973 974 979 980 975 
976 981 982 977 978 983 984 859 860 
875 876 861 862 877 878 863 864 879 
880 865 866 881 882 867 868 883 884 
985 986 991 992 987 988 993 994 989 
990 995 996 891 892 907 908 893 894 
909 910 895 896 911 912 897 898 905 
906 899 900 903 904 997 998 1003 1004 
999 1000 1005 1006 1001 1002 1007 1008 871 
872 901 902 869 870 889 890 857 858 
887 888 855 856 885 886 853 854 874 
873 1159 1160 1174 1175 1161 1162 1176 1177 
1163 1164 1178 1179 1165 1166 1180 1181 1167 
1168 1182 1183 1169 1170 1184 1185 1171 1172 
1186 1187 1173 1188 1189 1190 1204 1205 1191 
1192 1206 1207 1193 1194 1208 1209 1195 1196 
1210 1211 1197 1198 1212 1213 1199 1200 1214 
1215 1201 1202 1216 1217 1203 1218 1219 1220 
1234 1235 1221 1222 1236 1237 1223 1224 1238 
1239 1225 1226 1240 1241 1227 1228 1242 1243 
1229 1230 1244 1245 1231 1232 1246 1247 1233 
1248 2546 2728 1808 54 65 370 1788 2799 
621 3374 642 1748 3229 582 1818 652 2781 
1992 1158 1064 2818 3462 84 559 2715 1810 
2795 1833 1308 1777 3384 2821 1790 1602 1307 
85 519 1126 379 1580 1029 640 334 1682 
574 27 1044 779 584 83 499 271 1608 
1591 1658 758 780 801 1826 600 2808 359 
82 768 1043 1076 1486 88 562 1339 1691 
1535 1354 1094 1298 1277 1381 1581 1069 1674 
382 1596 1148 1737 1425 375 1827 1067 651 
1073 14 1096 339 1519 1252 1643 1265 1131 
1263 1294 1310 1124 1259 1138 325 345 1093 
1573 1125 89 1296 1095 522 1292 50 1546 
342 1306 1513 812 589 802 2534 403 1290 
1371 1275 1372 1524 1456 1387 1328 1386 1401 
1492 1416 1357 1117 1632 1102 1520 283 1089 
1567 366 1516 552 1642 26 767 1024 1127 
2051 566 516 1824 1362 1400 1343 1331 1431 
1348 1317 1341 1105 1569 1446 1286 1538 1554 
285 1370 356 1477 406 1409 1568 336 1507 
1045 1628 1071 1550 99 1717 258 790 35 
799 1345 1375 1329 1347 1330 1378 1302 1364 
1332 1318 1333 1342 1314 1384 1285 1445 1122 
1511 1260 1146 266 1156 1627 265 1648 1100 
529 1669 1789 1493 1417 1432 1360 1377 1363 
1392 1349 1407 1287 1415 1271 1301 343 1327 
1315 1540 1144 1410 49 376 513 757 303 
2836 1502 259 3415 290 1509 1389 1447 1361 
1376 1391 1420 1406 1393 1379 1350 1334 1270 
1316 1601 1356 1603 1625 395 1424 1086 1061 
573 1353 67 524 268 399 789 349 93 
1050 289 1785 1523 1508 1448 1480 1390 1402 
1404 1451 1421 1299 1458 1313 525 1367 1522 
1366 335 1582 1736 1663 620 509 64 3303 
1485 1561 388 1495 1433 1443 1388 1494 1418 
1403 1405 1481 1449 1429 1312 1585 1355 1571 
1380 1594 1552 262 1718 2274 70 498 28 
778 822 319 1459 1460 3454 1579 1461 1442 
1408 1434 1436 1272 1268 1422 1490 1542 1570 
1337 1116 1103 1322 1280 533 402 1106 12 
329 1462 1466 788 1463 1464 1467 1468 1465 
1469 1311 1440 1435 1288 1256 1303 1255 1300 
1340 276 1085 1526 1553 1309 535 39 1068 
264 309 798 1470 1804 1472 1471 1473 1319 
1335 1269 1474 1326 1505 1414 383 1527 1249 
1587 363 1060 405 1251 593 585 78 1694 
1695 1699 579 307 549 1696 1697 1700 1701 
1698 1702 1385 1283 1476 1457 1624 1497 1352 
1557 1606 305 502 504 75 561 1641 583 
606 1703 1707 1805 800 528 1704 1705 1708 
1709 1706 1710 1075 1609 1635 60 286 1660 
326 1279 1644 306 1604 1679 1154 386 316 
1536 1055 1615 1056 624 79 1626 17 777 
269 1711 1712 1823 810 569 1822 1713 811 
1828 1631 1564 384 546 1113 394 1048 544 
296 1130 1132 77 1584 1040 1721 656 626 
1530 1589 1690 1053 518 29 809 756 2840 
1862 1843 2830 311 365 1662 1039 374 37 
1613 340 565 315 404 1145 56 1629 1382 
1427 1617 401 1074 602 59 353 1636 615 
1595 1036 299 619 24 310 1820 2852 819 
2827 1157 364 526 1634 385 1528 1250 1444 
1562 46 68 1077 322 603 1072 1751 625 
1684 373 295 2423 1082 298 599 609 1841 
832 2831 1142 1678 591 576 511 1066 1575 
1111 272 57 635 47 2578 1766 2595 1747 
1733 595 352 372 1655 1638 1011 1649 81 
497 1025 588 808 630 1848 643 87 541 
1078 1057 360 1781 634 371 1583 1544 1548 
293 1654 294 1454 1653 1623 100 536 324 
1037 1083 267 1097 538 23 92 1821 2839 
797 821 616 1716 274 69 1771 1685 1412 
1754 332 604 1670 563 362 1722 1724 2338 
1630 1666 1052 308 42 32 300 650 578 
796 1844 830 1819 1740 605 1755 80 1731 
1659 1686 323 1671 2503 1545 2629 3 15 
1692 543 1676 1010 18 1030 287 328 378 
288 755 548 787 639 766 618 828 2835 
820 1840 1065 1720 1500 1515 1031 1278 1667 
1681 387 1034 52 1047 1032 367 277 567 
318 278 649 608 629 776 806 816 817 
818 1838 1845 2841 16 398 508 337 25 
347 607 368 648 338 775 358 637 628 
805 568 765 786 815 839 840 841 807 
831 842 1835 1836 1852 1842 1839 2850 794 
795 850 849 824 835 851 852 785 825 
1849 1850 836 826 1851 837 1853 827 838 
1854 1855 829 1856 1857 1834 1858 1859 1837 
1860 1861 1863 1864 1865 1879 1880 1866 1867 
1881 1882 1868 1869 1883 1884 1870 1871 1885 
1886 1872 1873 1887 1888 1874 1875 1889 1890 
1876 1877 1891 1892 1878 1893 1894 1895 1909 
1910 1896 1897 1911 1912 1898 1899 1913 1914 
1900 1901 1915 1916 1902 1903 1917 1918 1904 
1905 1919 1920 1906 1907 1921 1922 1908 1923 
1924 1925 1939 1940 1926 1927 1941 1942 1928 
1929 1943 1944 1930 1931 1945 1946 1932 1933 
1947 1948 1934 1935 1949 1950 1937 1952 1951 
1936 1938 1953 2114 2115 2130 2131 2116 2117 
2132 2133 2118 2119 2134 2135 2120 2121 2136 
2137 2122 2123 2138 2139 2124 2125 2140 2141 
2126 2127 2142 2143 2128 2129 2144 2145 2146 
2147 2162 2163 2148 2149 2164 2165 2150 2151 
2166 2167 2152 2153 2168 2169 2154 2155 2170 
2171 2156 2157 2172 2173 2158 2159 2174 2175 
2160 2161 2176 2177 2178 2179 2194 2195 2180 
2181 2196 2197 2182 2183 2198 2199 2184 2185 
2200 2201 2186 2187 2202 2203 2188 2189 2204 
2205 2190 2191 2206 2207 2192 2193 2208 2209 
1954 1799 74 2984 281 3348 2743 641 3388 
3406 2053 3278 291 3188 3299 2779 769 94 
2976 3433 3367 2797 3128 2765 2793 2791 1831 
645 2307 3425 351 2810 1758 631 3137 3482 
2814 1829 389 1807 3279 3474 3473 2988 3472 
2605 580 2809 2637 1812 3464 2607 3339 3446 
2812 2009 3259 3272 3157 3455 2823 3333 2068 
279 2815 2796 2651 3378 2801 2816 3010 1973 
2828 3253 3145 2373 3057 3012 2626 3343 3043 
3185 2030 2057 2046 3042 3044 3245 2656 2086 
3362 3364 2665 2472 2998 3369 1439 2544 2592 
3255 2455 2012 2010 2044 3226 3312 3035 2108 
2101 3005 3212 2272 2337 3195 2089 2221 2375 
2572 2106 2992 2223 2224 3013 2015 3269 3334 
2837 1806 3130 2650 2259 2565 3165 3004 3284 
2497 2039 2321 2574 2424 2096 2222 2293 2425 
2490 2063 2405 2277 2358 2529 2241 2334 2480 
2058 2554 2474 1980 3407 2418 2729 3447 3125 
2985 3282 2757 2496 3133 2342 2112 2100 2103 
2367 2073 2421 2456 2400 2297 2318 2350 2399 
2328 2366 2387 2540 2522 1619 95 1847 2635 
2036 3316 2502 2371 2506 3187 2599 2323 3134 
2357 2403 3292 2521 3204 2494 3132 2300 2314 
2298 2313 2296 2299 2317 2312 2281 2415 2329 
2333 3475 2826 3048 2834 2825 3359 3242 2014 
2028 3326 2262 3213 3244 2557 2016 2308 2302 
2282 2280 2265 2295 2249 2310 2343 2311 2360 
2332 2327 2345 2361 2315 2819 3309 3049 3050 
1987 3174 2623 3144 2038 2419 3003 2075 2017 
2047 2235 2336 2401 2283 2285 2218 2250 2248 
2426 2378 2394 2264 2330 2344 2316 2331 3209 
1757 3427 1994 2986 3492 3158 2975 3154 3345 
3054 3214 2555 2528 2239 2352 2234 2368 3183 
2393 2236 2458 2279 2395 2377 2380 2349 2347 
2364 2398 3030 2430 2431 2432 2433 2434 3437 
3465 3159 2067 2669 2829 3015 3398 2563 2284 
2301 2510 2763 2266 2231 2320 2233 2542 2427 
2379 2346 2348 2363 2362 2365 2435 2436 2440 
2441 2437 2438 2442 2443 2439 2444 3483 2972 
2625 3160 1989 3135 2088 3045 2324 2351 2252 
2254 2267 2410 2411 2412 2460 2413 2397 2381 
2445 2446 2447 2448 2449 3034 3389 2643 3246 
2618 2288 3267 2341 3323 2591 2585 2420 2479 
2566 2247 2219 2396 2326 2459 2428 2294 2461 
2680 2681 2686 2687 2682 2683 2688 2689 2684 
2685 2690 1846 3060 3456 3014 3216 3403 2559 
2359 2275 2511 2319 2416 2384 2229 2303 2353 
2255 2404 2107 2286 2253 2691 2692 2696 2697 
2693 2694 2698 2699 2695 2700 3169 3349 2020 
3352 2772 3227 2005 2060 2271 2113 2292 2526 
2102 2335 2369 2069 2055 2586 2589 2251 1825 
2701 2702 2705 3484 2832 2817 2824 2703 2704 
3476 3289 2983 2099 2973 2226 1965 2718 3276 
2602 2407 3262 2577 3233 2062 2214 2537 3236 
2408 2571 2087 2505 2059 3222 3274 3002 3466 
3485 3438 3139 2535 3221 2670 3205 2616 3206 
2029 3365 2007 2762 2025 2211 3126 2004 3016 
2061 2463 3153 3202 2071 2049 2385 2570 2048 
2245 3189 2833 3178 3457 1976 2649 3140 2339 
2659 2673 3393 3176 3297 3375 3337 2582 1997 
3287 3235 2545 2575 2244 2097 2289 2080 2556 
2072 2065 3224 2230 3280 3199 3495 3170 3408 
2019 2987 2978 1981 2609 2002 2485 3175 2486 
3053 3275 2759 3207 3423 3024 3193 2766 2256 
2023 3332 2603 3052 3006 3313 2604 2608 3172 
3496 3329 3179 3502 1974 3009 1990 3304 3335 
2033 2746 2498 3286 3217 2737 2011 3037 3422 
2013 572 2993 3019 3394 2820 3177 2543 2536 
3026 3396 3477 3310 3379 3493 3190 1985 3219 
1977 2549 2666 2468 2619 3382 2484 2466 2452 
3336 2719 2749 3366 3376 2751 3395 3356 2747 
3166 1964 1995 2773 3307 3355 2764 3494 2843 
3428 3399 3180 3281 2999 2488 2990 2655 1982 
2667 2642 2630 3196 2451 2516 2515 3266 3354 
3306 2787 2778 2716 3412 2774 2050 3247 2771 
2862 3486 2845 3448 3419 3300 3400 3311 3250 
3230 2356 3261 3181 2981 1975 2639 2354 2653 
2962 2713 3302 3344 2730 2597 3392 2648 3372 
2641 2594 2707 3373 3402 2514 2847 2846 3506 
3504 3467 3487 3370 3320 3409 3390 3449 3000 
3360 3301 3168 2989 3161 3021 3171 2969 3210 
3191 1413 2003 2726 3131 2390 1972 2624 3285 
3051 2842 2856 2844 2849 3497 3513 3498 3478 
3458 3505 3439 3468 3499 3489 3330 3429 3200 
3410 3290 3350 3270 3421 3040 3251 3430 3240 
3151 2851 2838 2853 2848 2854 2855 3512 3503 
2857 2858 3514 2859 3515 2860 3516 3507 2861 
2863 3517 3488 3508 2864 2865 3518 3509 3522 
3523 3469 3519 3510 3524 3459 3525 2866 2867 
2882 2883 2868 2869 2884 2885 2870 2871 2886 
2887 2872 2873 2888 2889 2874 2875 2890 2891 
2876 2877 2892 2893 2878 2879 2894 2895 2880 
2881 2896 2897 2898 2899 2914 2915 2900 2901 
2916 2917 2902 2903 2918 2919 2904 2905 2920 
2921 2906 2907 2922 2923 2908 2909 2924 2925 
2910 2911 2926 2927 2912 2913 2928 2929 2930 
2931 2946 2947 2932 2933 2948 2949 2934 2935 
2950 2951 2936 2937 2952 2953 2938 2939 2954 
2955 2940 2941 2956 2957 2959 2958 2943 2942 
2945 2944 2960 2961 3062 3063 3078 3079 3064 
3065 3080 3081 3066 3067 3082 3083 3068 3069 
3084 3085 3070 3071 3086 3087 3592 3593 3598 
3599 3594 3595 3600 3601 3596 3597 3602 3603 
3094 3095 3110 3111 3096 3097 3112 3113 3098 
3099 3114 3115 3100 3101 3116 3117 3102 3103 
3118 3119 3604 3605 3610 3611 3606 3607 3612 
3613 3608 3609 3614 3615 3090 3091 3120 3121 
3088 3089 3108 3109 3076 3077 3106 3107 3074 
3075 3104 3105 3072 3073 3092 3093 3616 3617 
3622 3623 3618 3619 3624 3625 3620 3621 3626 
3627 1768 2800 1752 3318 2807 539 2785 2731 
1727 3056 2742 2727 1955 2783 1668 2662 1956 
2644 2454 1961 1962 1967 3628 3629 3634 3635 
3630 3631 3636 3637 3632 3633 3638 3639 3417 
3260 2560 3129 3032 2614 3358 2995 3368 1979 
2994 3397 3319 3377 2782 1959 1957 2710 1968 
3640 3641 3646 3647 3642 3643 3648 3649 3644 
3645 3650 3651 3418 2613 3436 3059 3353 2638 
2979 3149 3215 3028 2811 761 3198 3338 1958 
3249 2548 2082 3652 3653 3658 3659 3654 3655 
3660 3661 3656 3657 3662 3663 3383 2054 2040 
2228 2043 2593 2664 3264 3163 2212 2391 2081 
1983 2045 3416 1811 2243 3443 3424 2098 3442 
2963 3664 3665 3670 3671 3666 3667 3672 3673 
3668 3669 3674 3675 2464 3203 2094 2270 3025 
2215 3296 2406 3237 2636 3164 2741 3223 2822 
2567 1498 3138 2767 1817 3676 3677 3682 3683 
3679 3685 3684 3678 3687 3680 3681 3686 2273 
2240 3283 2553 3182 2091 2077 2309 2600 2568 
3124 2261 3173 3426 2997 3463 2654 2786 2803 
3688 3689 3694 3695 3690 3691 3696 3697 3692 
3693 3698 3699 2325 2525 2541 2246 3192 2093 
2111 3315 3162 2520 2588 3295 3294 3047 2813 
3452 3218 1714 3700 3701 3706 3707 3702 3703 
3708 3709 3704 3705 3710 3711 2539 2414 2383 
2076 2508 2269 2457 2291 2500 3186 2660 2668 
3258 2671 2501 2031 3414 2006 2622 2001 3712 
3713 3718 3719 3714 3715 3720 3721 3716 3717 
3722 3723 2478 2462 2473 2493 2388 2523 2074 
2092 2524 2027 3023 2070 3142 3022 3363 2776 
3435 2736 3724 3725 3730 3731 3726 3727 3732 
3733 3728 3729 3734 3735 2491 2509 2109 2217 
2475 2392 3305 2551 3033 2386 2026 3254 2041 
2583 3146 2732 3445 2768 1960 3736 3737 3742 
3743 3738 3739 3744 3745 3740 3741 3746 3747 
2382 2389 2429 2477 2260 2409 2110 2376 2305 
2581 2213 2032 2552 3147 3122 3444 1970 3148 
3277 3748 3749 3754 3755 3750 3751 3756 3757 
3752 3753 3758 3759 2422 2492 2476 2340 2104 
2238 2216 2606 2558 2504 2527 2569 2996 3156 
2532 3243 3017 1999 1773 3760 3761 3766 3767 
3762 3763 3768 3769 3764 3765 3770 3771 2278 
2263 2507 2489 2090 2370 2287 2417 2232 2465 
2640 2587 1998 2000 3434 2579 762 2744 2258 
1753 3772 3773 3774 3775 3776 3777 2105 3232 
2237 2402 2304 2495 2481 3155 2538 2584 2227 
3322 3123 3039 2550 3038 3029 3058 3385 3298 
1802 3036 3778 3779 3784 3785 3780 3781 3786 
3787 3782 3783 3788 3789 2268 2220 2561 2573 
2056 2042 3027 2021 1991 3234 3208 2008 2780 
2754 2355 2708 3790 3791 3796 3797 3792 3793 
3798 3799 3794 3795 3800 3801 2064 3314 3324 
2276 2633 2513 2652 3225 2601 3018 3386 3453 
3268 3007 3008 2777 2530 2761 2740 2717 3802 
3803 3808 3809 3804 3805 3810 3811 3806 3807 
3812 3813 2225 3263 2085 3293 2083 2095 3342 
3194 2784 3308 3143 2631 3239 3357 3257 2469 
1963 2733 2965 3814 3815 3820 3821 3816 3817 
3822 3823 3818 3819 3824 3825 3184 3152 2798 
2079 2576 3273 341 2024 2794 3252 3055 3328 
3256 1734 2450 613 2596 2723 2966 2739 2621 
3826 3827 3832 3833 3828 3829 3834 3835 3830 
3831 3836 3837 1993 2257 3046 2078 2374 3167 
3288 3347 3248 2617 2804 2792 3327 2982 2677 
2967 2755 2970 2971 3838 3839 3844 3845 3840 
3841 3846 3847 3842 3843 3848 3849 2620 2037 
1719 3228 1996 2512 2750 3197 3127 3405 2775 
3404 1426 2632 2084 2533 2712 2968 2991 3011 
3850 3851 3856 3857 3852 3853 3858 3859 3854 
3855 3860 3861 2022 3136 2722 2758 2724 2789 
3432 2752 2290 3317 2661 2714 2679 2734 2709 
3031 3325 3041 3862 3863 3868 3869 3870 3865 
3864 3871 3873 3872 3866 3867 2735 2745 3346 
3413 3238 2612 636 1750 2306 2720 2756 2562 
2482 2977 2964 3001 2467 3201 1969 3061 3874 
3875 3880 3881 3876 3877 3882 3883 3878 3879 
3884 3885 2453 2499 2372 2676 2711 2663 2760 
2647 2657 2672 1971 3211 2210 2322 3231 3291 
2590 3331 3886 3887 3892 3893 3888 3889 3894 
3895 3890 3891 3896 3897 2646 2615 1966 2598 
3265 1988 2519 2627 2611 1984 1978 2634 2675 
2974 2035 3141 3241 3321 3381 2518 3411 3898 
3899 3904 3905 3900 3901 3906 3907 3902 3903 
3908 3909 3271 3391 3341 3340 3020 2052 3401 
3420 3361 3371 3220 3441 3150 3351 3461 2980 
3431 3471 3481 3910 3911 3916 3917 3912 3913 
3918 3919 3914 3915 3920 3921 3526 3479 3480 
3450 3451 3527 3520 3528 3490 3460 3529 3500 
3380 3470 3530 3511 3440 3491 3501 3521 3531 
3922 3923 3928 3929 3924 3925 3930 3931 3926 
3927 3932 3933 3532 3533 3548 3549 3534 3535 
3550 3551 3536 3537 3552 3553 3538 3539 3554 
3555 3540 3541 3556 3557 3934 3935 3940 3941 
3936 3937 3942 3943 3938 3939 3944 3945 3564 
3565 3580 3581 3566 3567 3582 3583 3568 3569 
3584 3585 3570 3571 3586 3587 3572 3573 3588 
3589 3946 3947 3952 3953 3948 3949 3954 3955 
3950 3951 3956 3957 3560 3561 3590 3591 3558 
3559 3578 3579 3546 3547 3576 3577 3544 3545 
3574 3575 3542 3543 3562 3563 3958 3959 3964 
3965 3960 3961 3966 3967 3963 3969 3962 3968 

C_[0] 1 3969 double
0 0 0 0 0 0 0 0 0 
0 0 0 0 0 0 0 0 0 
0 0 0 0 0 0 0 0 0 
0 0 0 0 0 0 0 0 0 
0 0 0 0 0 0 0 0 0 
0 0 0 0 0 0 0 0 0 
0 0 0 0 0 0 0 0 0 
0 0 0 0 0 0 0 0 0 
0 0 0 0 0 0 0 0 0 
0 0 0 0 0 0 0 0 0 
0 0 0 0 0 0 0 0 0 
0 0 0 0 0 0 0 0 0 
0.00153683 0.00292203 0.00906108 0.0180816 0.0125766 0.00579343 0.0252814 0.00899487 0.0245973 
0.03321 0.0145851 0.0515084 0.0159792 0.0532822 0.0169127 0.0462463 0.0750841 0.0268892 
0.0913835 0.0827155 0 0 0 0 0 0 0 
0 0 0 0 0 0.0196049 0.013831 0.00456586 0.00843384 
0.0391963 0.034406 0.0395116 0.0572068 0.0563323 0.0756108 0.0618115 0.0952458 0.0924 
0.0929553 0.128502 0.085421 0.129549 0.119141 0.150169 0.133603 0.188678 0.160622 
0 0 0 0 0 0 0 0 0 