# vtk DataFile Version 3.0
Generated by LAMMPS
ASCII
DATASET POLYDATA
POINTS 3969 float
-0.607843 -0.607843 0 -0.588235 -0.607843 0 -0.607843 -0.588235 0 
-0.588235 -0.588235 0 -0.568627 -0.607843 0 -0.54902 -0.607843 0 
-0.568627 -0.588235 0 -0.54902 -0.588235 0 -0.529412 -0.607843 0 
-0.509804 -0.607843 0 -0.529412 -0.588235 0 -0.509804 -0.588235 0 
-0.490196 -0.607843 0 -0.470588 -0.607843 0 -0.490196 -0.588235 0 
-0.470588 -0.588235 0 -0.45098 -0.607843 0 -0.431373 -0.607843 0 
-0.45098 -0.588235 0 -0.431373 -0.588235 0 -0.411765 -0.607843 0 
-0.392157 -0.607843 0 -0.411765 -0.588235 0 -0.392157 -0.588235 0 
-0.372549 -0.607843 0 -0.352941 -0.607843 0 -0.372549 -0.588235 0 
-0.352941 -0.588235 0 -0.333333 -0.607843 0 -0.313726 -0.607843 0 
-0.333333 -0.588235 0 -0.313726 -0.588235 0 -0.607843 -0.568627 0 
-0.588235 -0.568627 0 -0.607843 -0.54902 0 -0.588235 -0.54902 0 
-0.568627 -0.568627 0 -0.54902 -0.568627 0 -0.568627 -0.54902 0 
-0.54902 -0.54902 0 -0.529412 -0.568627 0 -0.509804 -0.568627 0 
-0.529412 -0.54902 0 -0.509804 -0.54902 0 -0.490196 -0.568627 0 
-0.470588 -0.568627 0 -0.490196 -0.54902 0 -0.470588 -0.54902 0 
-0.45098 -0.568627 0 -0.431373 -0.568627 0 -0.45098 -0.54902 0 
-0.431373 -0.54902 0 -0.411765 -0.568627 0 -0.392157 -0.568627 0 
-0.411765 -0.54902 0 -0.392157 -0.54902 0 -0.372549 -0.568627 0 
-0.352941 -0.568627 0 -0.352941 -0.54902 0 -0.372549 -0.54902 0 
-0.333333 -0.568627 0 -0.313726 -0.568627 0 -0.313726 -0.54902 0 
-0.333333 -0.54902 0 -0.607843 -0.529412 0 -0.588235 -0.529412 0 
-0.607843 -0.509804 0 -0.588235 -0.509804 0 -0.568627 -0.529412 0 
-0.54902 -0.529412 0 -0.568627 -0.509804 0 -0.54902 -0.509804 0 
-0.529412 -0.529412 0 -0.509804 -0.529412 0 -0.529412 -0.509804 0 
-0.509804 -0.509804 0 -0.470588 -0.509804 0 -0.490196 -0.509804 0 
-0.470588 -0.529412 0 -0.490196 -0.529412 0 -0.431373 -0.509804 0 
-0.45098 -0.509804 0 -0.431373 -0.529412 0 -0.45098 -0.529412 0 
-0.392157 -0.509804 0 -0.411765 -0.509804 0 -0.392157 -0.529412 0 
-0.411765 -0.529412 0 -0.352941 -0.509804 0 -0.372549 -0.509804 0 
-0.352941 -0.529412 0 -0.372549 -0.529412 0 -0.313726 -0.509804 0 
-0.333333 -0.509804 0 -0.313726 -0.529412 0 -0.333333 -0.529412 0 
-0.607843 -0.490196 0 -0.588235 -0.490196 0 -0.607843 -0.470588 0 
-0.588235 -0.470588 0 -0.568627 -0.490196 0 -0.54902 -0.490196 0 
-0.568627 -0.470588 0 -0.54902 -0.470588 0 -0.529412 -0.490196 0 
-0.509804 -0.490196 0 -0.529412 -0.470588 0 -0.509804 -0.470588 0 
-0.5 -0.491837 0 -0.48057 -0.499373 0 -0.485031 -0.47349 0 
-0.465845 -0.473518 0 -0.463907 -0.485297 0 -0.453118 -0.499542 0 
-0.445313 -0.473981 0 -0.428697 -0.473277 0 -0.429318 -0.499102 0 
-0.422422 -0.485471 0 -0.40386 -0.49572 0 -0.404817 -0.470903 0 
-0.388739 -0.481399 0 -0.380161 -0.498164 0 -0.359274 -0.49642 0 
-0.378645 -0.468266 0 -0.360738 -0.477077 0 -0.338933 -0.49491 0 
-0.348649 -0.467145 0 -0.315297 -0.5 0 -0.330808 -0.47664 0 
-0.317569 -0.471303 0 -0.607843 -0.45098 0 -0.588235 -0.45098 0 
-0.607843 -0.431373 0 -0.588235 -0.431373 0 -0.568627 -0.45098 0 
-0.54902 -0.45098 0 -0.568627 -0.431373 0 -0.54902 -0.431373 0 
-0.529412 -0.45098 0 -0.509804 -0.45098 0 -0.529412 -0.431373 0 
-0.509804 -0.431373 0 -0.472265 -0.453159 0 -0.488812 -0.444193 0 
-0.5 -0.463141 0 -0.5 -0.42856 0 -0.469502 -0.433042 0 
-0.454908 -0.452962 0 -0.449934 -0.429702 0 -0.437846 -0.447077 0 
-0.421177 -0.454842 0 -0.419233 -0.435166 0 -0.398316 -0.45408 0 
-0.399343 -0.437941 0 -0.369988 -0.452091 0 -0.382255 -0.436318 0 
-0.370709 -0.42468 0 -0.354688 -0.446079 0 -0.349329 -0.428665 0 
-0.334177 -0.452281 0 -0.333396 -0.423823 0 -0.322366 -0.443882 0 
-0.607843 -0.411765 0 -0.588235 -0.411765 0 -0.607843 -0.392157 0 
-0.588235 -0.392157 0 -0.568627 -0.411765 0 -0.54902 -0.411765 0 
-0.568627 -0.392157 0 -0.54902 -0.392157 0 -0.529412 -0.411765 0 
-0.509804 -0.411765 0 -0.529412 -0.392157 0 -0.509804 -0.392157 0 
-0.480944 -0.420509 0 -0.494646 -0.402574 0 -0.474009 -0.398047 0 
-0.43472 -0.422627 0 -0.460063 -0.410559 0 -0.445827 -0.400977 0 
-0.428711 -0.401331 0 -0.412938 -0.415988 0 -0.412951 -0.392418 0 
-0.397228 -0.411659 0 -0.388436 -0.401595 0 -0.374821 -0.384647 0 
-0.369469 -0.407934 0 -0.358067 -0.384606 0 -0.351232 -0.408036 0 
-0.338848 -0.395787 0 -0.322747 -0.398852 0 -0.317544 -0.419095 0 
-0.607843 -0.372549 0 -0.588235 -0.372549 0 -0.607843 -0.352941 0 
-0.588235 -0.352941 0 -0.568627 -0.372549 0 -0.54902 -0.372549 0 
-0.568627 -0.352941 0 -0.54902 -0.352941 0 -0.529412 -0.372549 0 
-0.509804 -0.372549 0 -0.529412 -0.352941 0 -0.509804 -0.352941 0 
-0.46511 -0.384226 0 -0.49329 -0.380856 0 -0.478432 -0.371125 0 
-0.497334 -0.358142 0 -0.48091 -0.348779 0 -0.441553 -0.380308 0 
-0.451673 -0.367682 0 -0.462858 -0.353465 0 -0.434932 -0.350422 0 
-0.404219 -0.377969 0 -0.424886 -0.374371 0 -0.417781 -0.357226 0 
-0.394544 -0.35269 0 -0.388696 -0.373859 0 -0.378409 -0.345008 0 
-0.370363 -0.363115 0 -0.354923 -0.355038 0 -0.344555 -0.373226 0 
-0.3393 -0.346462 0 -0.327865 -0.372752 0 -0.322022 -0.354405 0 
-0.607843 -0.333333 0 -0.588235 -0.333333 0 -0.607843 -0.313726 0 
-0.588235 -0.313726 0 -0.568627 -0.333333 0 -0.54902 -0.333333 0 
-0.568627 -0.313726 0 -0.54902 -0.313726 0 -0.529412 -0.333333 0 
-0.509804 -0.333333 0 -0.529412 -0.313726 0 -0.509804 -0.313726 0 
-0.466164 -0.330001 0 -0.483918 -0.330481 0 -0.498328 -0.320866 0 
-0.470058 -0.308457 0 -0.447554 -0.341845 0 -0.453007 -0.316734 0 
-0.435798 -0.312641 0 -0.429609 -0.328569 0 -0.407757 -0.34303 0 
-0.413691 -0.323202 0 -0.399299 -0.312685 0 -0.388586 -0.326854 0 
-0.373695 -0.320147 0 -0.360343 -0.334747 0 -0.332397 -0.307896 0 
-0.346799 -0.322746 0 -0.329115 -0.330493 0 -0.607843 -0.294118 0 
-0.588235 -0.294118 0 -0.607843 -0.27451 0 -0.588235 -0.27451 0 
-0.568627 -0.294118 0 -0.54902 -0.294118 0 -0.568627 -0.27451 0 
-0.54902 -0.27451 0 -0.529412 -0.294118 0 -0.509804 -0.294118 0 
-0.529412 -0.27451 0 -0.509804 -0.27451 0 -0.495929 -0.288023 0 
-0.477496 -0.277309 0 -0.47904 -0.295947 0 -0.458871 -0.274037 0 
-0.440623 -0.279525 0 -0.456844 -0.29359 0 -0.431997 -0.293872 0 
-0.422294 -0.270126 0 -0.405688 -0.284065 0 -0.39179 -0.267834 0 
-0.414524 -0.298204 0 -0.389632 -0.293842 0 -0.376494 -0.269197 0 
-0.361542 -0.279482 0 -0.374876 -0.296029 0 -0.359457 -0.305919 0 
-0.33618 -0.278269 0 -0.345046 -0.29407 0 -0.318761 -0.285545 0 
-0.315204 -0.304727 0 -0.607843 -0.254902 0 -0.588235 -0.254902 0 
-0.607843 -0.235294 0 -0.588235 -0.235294 0 -0.568627 -0.254902 0 
-0.54902 -0.254902 0 -0.568627 -0.235294 0 -0.54902 -0.235294 0 
-0.529412 -0.254902 0 -0.509804 -0.254902 0 -0.529412 -0.235294 0 
-0.509804 -0.235294 0 -0.499553 -0.261125 0 -0.479276 -0.256871 0 
-0.487668 -0.239196 0 -0.464621 -0.232618 0 -0.462133 -0.254779 0 
-0.432881 -0.257095 0 -0.446055 -0.246715 0 -0.430219 -0.230792 0 
-0.407194 -0.258428 0 -0.41603 -0.241492 0 -0.397473 -0.236675 0 
-0.35219 -0.264546 0 -0.382965 -0.24596 0 -0.365695 -0.248195 0 
-0.353074 -0.236619 0 -0.321189 -0.263511 0 -0.337732 -0.252459 0 
-0.32759 -0.23899 0 -0.607843 -0.215686 0 -0.588235 -0.215686 0 
-0.607843 -0.196078 0 -0.588235 -0.196078 0 -0.568627 -0.215686 0 
-0.54902 -0.215686 0 -0.568627 -0.196078 0 -0.54902 -0.196078 0 
-0.529412 -0.215686 0 -0.509804 -0.215686 0 -0.529412 -0.196078 0 
-0.509804 -0.196078 0 -0.473751 -0.220122 0 -0.491319 -0.222017 0 
-0.47476 -0.193709 0 -0.497278 -0.197762 0 -0.446461 -0.224831 0 
-0.44448 -0.205985 0 -0.462814 -0.201862 0 -0.432803 -0.19112 0 
-0.407557 -0.218332 0 -0.423027 -0.210373 0 -0.39042 -0.21391 0 
-0.412606 -0.193344 0 -0.395947 -0.192353 0 -0.3757 -0.225424 0 
-0.362775 -0.21503 0 -0.379846 -0.195805 0 -0.36256 -0.193511 0 
-0.319238 -0.22609 0 -0.344928 -0.220427 0 -0.332826 -0.207764 0 
-0.346111 -0.193574 0 -0.319237 -0.19686 0 -0.607843 -0.176471 0 
-0.588235 -0.176471 0 -0.607843 -0.156863 0 -0.588235 -0.156863 0 
-0.568627 -0.176471 0 -0.54902 -0.176471 0 -0.568627 -0.156863 0 
-0.54902 -0.156863 0 -0.529412 -0.176471 0 -0.509804 -0.176471 0 
-0.529412 -0.156863 0 -0.509804 -0.156863 0 -0.464375 -0.17354 0 
-0.483172 -0.177617 0 -0.482319 -0.15863 0 -0.498447 -0.159934 0 
-0.449154 -0.182078 0 -0.429208 -0.168405 0 -0.445686 -0.161372 0 
-0.411983 -0.172635 0 -0.395261 -0.164988 0 -0.417299 -0.151703 0 
-0.381358 -0.171721 0 -0.364196 -0.171209 0 -0.372904 -0.150557 0 
-0.354156 -0.151791 0 -0.345029 -0.173483 0 -0.328446 -0.177167 0 
-0.322413 -0.159472 0 -0.607843 -0.137255 0 -0.588235 -0.137255 0 
-0.607843 -0.117647 0 -0.588235 -0.117647 0 -0.568627 -0.137255 0 
-0.54902 -0.137255 0 -0.568627 -0.117647 0 -0.54902 -0.117647 0 
-0.529412 -0.137255 0 -0.509804 -0.137255 0 -0.529412 -0.117647 0 
-0.509804 -0.117647 0 -0.467239 -0.148134 0 -0.475203 -0.132613 0 
-0.491605 -0.130555 0 -0.449218 -0.144586 0 -0.42814 -0.13868 0 
-0.440053 -0.124384 0 -0.457764 -0.122686 0 -0.398096 -0.144841 0 
-0.422027 -0.114698 0 -0.409424 -0.128446 0 -0.394241 -0.115175 0 
-0.383897 -0.135363 0 -0.363002 -0.130759 0 -0.375033 -0.114277 0 
-0.337345 -0.14878 0 -0.345971 -0.127757 0 -0.323692 -0.134415 0 
-0.333356 -0.115471 0 -0.607843 -0.0980392 0 -0.588235 -0.0980392 0 
-0.607843 -0.0784314 0 -0.588235 -0.0784314 0 -0.568627 -0.0980392 0 
-0.54902 -0.0980392 0 -0.568627 -0.0784314 0 -0.54902 -0.0784314 0 
-0.529412 -0.0980392 0 -0.509804 -0.0980392 0 -0.529412 -0.0784314 0 
-0.509804 -0.0784314 0 -0.469886 -0.1087 0 -0.496859 -0.112117 0 
-0.482278 -0.0975943 0 -0.477937 -0.0791892 0 -0.496354 -0.0791633 0 
-0.432803 -0.100396 0 -0.450847 -0.100582 0 -0.459209 -0.0862238 0 
-0.431678 -0.0817459 0 -0.405395 -0.101101 0 -0.413427 -0.0846054 0 
-0.394526 -0.0805209 0 -0.356964 -0.106912 0 -0.382077 -0.0961362 0 
-0.36398 -0.0888384 0 -0.31696 -0.107784 0 -0.342425 -0.0954346 0 
-0.327415 -0.0892213 0 -0.607843 -0.0588235 0 -0.588235 -0.0588235 0 
-0.607843 -0.0392157 0 -0.588235 -0.0392157 0 -0.568627 -0.0588235 0 
-0.54902 -0.0588235 0 -0.568627 -0.0392157 0 -0.54902 -0.0392157 0 
[...]
POINT_DATA 3969
FIELD FieldData 5
id 1 3969 int
161 162 167 168 163 164 169 170 165 
166 171 172 107 108 123 124 109 110 
125 126 111 112 127 128 113 114 129 
130 115 116 131 132 173 174 179 180 
175 176 181 182 177 178 183 184 139 
140 155 156 141 142 157 158 143 144 
159 160 145 146 153 154 147 148 151 
152 185 186 191 192 187 188 193 194 
189 190 195 196 119 120 149 150 117 
118 137 138 105 106 135 136 103 104 
133 134 101 102 121 122 197 198 203 
204 199 200 205 206 201 202 207 208 
1013 1015 1499 2242 1019 1021 1759 2628 1023 
2645 2470 1832 1732 1411 2483 3387 771 263 
1808 2546 54 65 209 210 215 216 211 
212 217 218 213 214 219 220 2788 1016 
1009 9 623 1779 1780 531 280 1816 1774 
1793 1504 770 759 1790 1307 519 1126 379 
221 222 227 228 223 224 229 230 225 
226 231 232 622 1803 1798 1775 292 610 
1665 62 73 1809 1683 1076 1602 1486 85 
562 1691 1580 233 234 239 240 235 236 
241 242 237 238 243 244 571 1529 1794 
2487 1776 632 1046 1646 354 791 13 586 
344 1276 503 1043 1519 88 1265 1339 1263 
245 246 251 252 247 248 253 254 249 
250 255 256 369 2790 1592 2531 390 792 
1657 33 19 1101 1109 1324 1151 1252 1524 
1643 1131 407 408 413 414 409 410 415 
416 411 412 417 418 614 2753 2769 260 
570 320 1395 556 1088 1267 1129 1266 1104 
1139 1153 1290 1372 1275 1431 1456 419 420 
425 426 421 422 427 428 423 424 429 
430 1017 2748 96 564 540 1576 1099 1452 
313 333 1597 1371 1305 1359 1344 1343 1400 
1362 431 432 437 438 433 434 439 440 
435 436 441 442 611 655 1778 86 43 
1614 1293 1588 1110 1453 1121 1295 1325 1482 
1455 1496 1373 1329 1358 1346 1555 1345 443 
444 449 450 445 446 451 452 447 448 
453 454 1745 1058 2738 1022 1051 1501 554 
1135 1118 1599 355 1423 1119 1321 1572 1374 
1441 455 456 461 462 457 458 463 464 
459 460 465 466 36 1730 782 330 1084 
1640 1610 1147 542 1261 1090 506 1133 381 
1541 1320 1478 1120 467 468 473 474 469 
470 475 476 471 472 477 478 612 1020 
654 400 1012 270 1815 781 301 1647 1091 
1059 1257 1645 592 1137 1134 1437 479 480 
485 486 481 482 487 488 483 484 489 
490 590 1725 644 520 1782 2806 1081 1637 
1593 1560 1556 1323 1092 1281 1152 1396 1351 
1525 1304 1394 1136 491 492 493 494 495 
496 2471 7 1143 1018 1651 1598 1830 560 
314 1633 1532 1656 1149 1551 1140 1253 1365 
1537 1258 657 658 663 664 659 660 665 
666 661 662 667 668 312 1618 1763 550 
396 63 1791 1611 1483 1438 523 1689 1586 
304 534 1489 1262 1291 284 669 670 675 
676 671 672 677 678 673 674 679 680 
2674 34 2658 2034 2725 1338 2721 1368 555 
1688 1543 1521 1108 1087 1616 1506 1565 1574 
681 682 687 688 683 684 689 690 685 
686 691 692 1770 2706 1487 2770 1547 1761 
1813 1728 1264 1639 545 1155 1369 1063 1141 
1107 1070 575 1114 693 694 699 700 695 
696 701 702 697 698 703 704 1814 1622 
501 1784 2802 2517 1661 55 510 1672 1797 
1792 45 1123 1049 275 1399 1600 515 705 
706 711 712 707 708 713 714 709 710 
715 716 392 1726 1533 1986 1577 53 331 
1735 530 380 1795 66 282 97 653 30 
346 2805 500 717 718 723 724 719 720 
725 726 721 722 727 728 646 2 1652 
1 1738 302 2678 1787 1590 1484 1743 1764 
633 1760 1041 1062 760 1398 76 729 730 
735 736 731 732 737 738 733 734 739 
740 1729 1014 4 21 2018 1786 5 1742 
1756 581 1769 1054 1680 772 1749 1800 261 
1566 44 521 1796 741 742 747 748 743 
744 749 750 745 746 751 752 31 41 
61 6 11 1531 1741 1080 512 1767 1518 
1687 1762 48 391 321 98 551 1549 913 
914 919 920 915 916 921 922 917 918 
923 924 257 1693 1677 91 2610 2580 1620 
1664 1650 1675 1723 1783 2547 1746 532 361 
1744 1765 1772 1801 925 926 931 932 927 
928 933 934 929 930 935 936 357 596 
2066 507 547 1383 1098 71 2564 20 594 
1033 1503 8 1038 1563 553 1514 393 937 
938 943 944 939 940 945 946 941 942 
947 948 397 1026 597 647 1128 557 317 
1558 1607 1397 1559 1673 22 514 10 1621 
1517 1578 1488 1035 949 950 955 956 951 
952 957 958 953 954 959 960 577 753 
783 793 527 72 558 348 617 327 627 
537 297 587 1028 598 377 1112 517 961 
962 967 968 963 964 969 970 965 966 
971 972 774 803 833 843 813 814 844 
754 773 784 845 823 804 846 847 764 
638 834 848 973 974 979 980 975 976 
981 982 977 978 983 984 859 860 875 
876 861 862 877 878 863 864 879 880 
865 866 881 882 867 868 883 884 985 
986 991 992 987 988 993 994 989 990 
995 996 891 892 907 908 893 894 909 
910 895 896 911 912 897 898 905 906 
899 900 903 904 997 998 1003 1004 999 
1000 1005 1006 1001 1002 1007 1008 871 872 
901 902 869 870 889 890 857 858 887 
888 855 856 885 886 873 874 853 854 
1159 1160 1174 1175 1161 1162 1176 1177 1163 
1164 1178 1179 1165 1166 1180 1181 1167 1168 
1182 1183 1169 1170 1184 1185 1171 1172 1186 
1187 1173 1188 1189 1190 1204 1205 1191 1192 
1206 1207 1193 1194 1208 1209 1195 1196 1210 
1211 1197 1198 1212 1213 1199 1200 1214 1215 
1201 1202 1216 1217 1203 1218 1219 1220 1234 
1235 1221 1222 1236 1237 1223 1224 1238 1239 
1225 1226 1240 1241 1227 1228 1242 1243 1229 
1230 1244 1245 1231 1232 1246 1247 1233 1248 
2728 370 2799 621 1788 642 3229 3374 1818 
1748 652 1158 582 2781 1064 1992 3462 84 
2818 559 1810 1308 2715 2795 1833 801 1777 
3384 2821 281 1029 640 334 574 27 1044 
779 584 83 1608 499 382 271 1658 1425 
1591 1737 758 780 1067 1826 1827 651 2808 
14 82 600 359 768 1096 2796 1354 1094 
1682 1298 1069 1277 1581 1381 1093 1674 1148 
1125 1296 1596 1095 522 89 1292 375 50 
1073 1546 342 812 1642 1513 339 1306 403 
26 802 589 2534 1824 1535 1310 1124 1259 
1138 325 1117 345 1632 1573 283 1520 1567 
1089 406 366 552 336 1516 1628 767 1550 
1127 1024 516 1071 566 790 1294 1387 1386 
1401 1416 1492 1357 1538 1446 1554 1102 285 
356 1477 1568 1445 1507 1409 1260 1511 1045 
1146 1156 266 1627 99 265 1648 799 1100 
529 1717 1669 1317 1348 1328 1341 1569 1105 
1286 1318 1370 1314 1285 1342 1122 1384 1415 
1327 343 1540 1315 1410 1144 376 395 303 
49 513 1502 1789 757 259 2836 1331 1347 
1330 1302 1378 1364 1332 1333 1349 1287 1407 
1271 1301 1316 1270 1603 1625 1424 1356 1522 
573 1061 1086 1582 524 1353 67 290 268 
93 1375 1432 1360 1377 1363 1392 1376 1420 
1393 1406 1379 1601 1350 1313 1458 1367 525 
1571 1366 335 262 1552 1736 509 1663 620 
70 349 399 789 1050 1493 1417 1389 1447 
1361 1391 1404 1334 1421 1451 1449 1299 1429 
1585 1337 1380 1594 1116 1718 1280 329 533 
2274 498 28 3209 1785 1485 1561 1509 1539 
1510 1523 1480 1448 1390 1402 1388 1418 1405 
1312 1403 1481 1490 1355 1570 1542 1553 1103 
1322 264 1309 402 1106 1068 822 778 12 
319 788 64 3427 1757 3303 388 1336 1479 
1508 1433 1443 1494 1434 1436 1272 1340 1422 
1085 276 363 39 535 1060 593 798 1804 
309 1459 1460 3454 1579 1461 1512 1495 1419 
1274 1450 1442 1408 1435 1256 1268 1303 1300 
1526 405 1527 1251 1587 78 1641 502 583 
585 1462 1466 307 579 549 1463 1464 1467 
1468 1465 1469 1289 1534 1150 1273 1440 1311 
1288 1255 1505 383 1414 1249 1606 75 561 
606 528 800 1470 1472 1471 1473 1284 1254 
1282 1335 1319 1474 1326 1497 1352 305 1557 
504 1536 316 1679 1056 17 1626 1694 1695 
1699 1805 777 1823 1696 1697 1700 1701 1698 
1702 1491 1269 1385 1297 1612 1476 1283 1457 
1075 1624 326 1604 1154 1279 1055 1615 77 
386 624 79 1721 1589 1703 1707 269 569 
810 1704 1705 1708 1709 1706 1710 1475 1609 
60 1430 90 1635 286 1660 1644 306 1130 
1584 1132 1040 656 626 1690 1530 518 29 
1053 1711 1712 1822 2840 809 811 1713 1828 
1862 1428 1115 505 1631 546 1564 384 1113 
394 1048 544 296 315 1145 1629 1382 401 
1074 602 1036 353 1636 299 756 619 24 
1843 2830 1820 2852 819 601 1042 1662 311 
365 374 37 1613 340 565 404 46 56 
1617 1077 322 1427 59 1751 625 615 1595 
373 1684 310 1082 298 599 2827 609 1841 
1605 1039 350 1157 1634 526 364 385 1528 
1250 1444 1562 68 603 1766 47 1072 595 
352 295 2423 1655 1638 81 497 1025 832 
2831 630 808 1848 1079 38 1142 1678 591 
576 511 1066 1575 1111 272 57 635 2578 
1747 293 294 2595 1733 1653 372 100 1011 
1083 1037 1649 588 92 23 3502 1821 797 
2839 40 643 87 1078 1057 360 1781 634 
371 1583 1544 1548 1654 563 1454 324 2338 
1722 1623 536 1097 1052 267 538 300 32 
1844 796 821 274 1715 541 273 58 616 
1716 69 1771 1685 1412 1754 332 604 1670 
362 543 1724 1666 1630 308 42 288 1030 
650 578 639 787 830 1819 2843 2835 1739 
605 80 1731 1740 1755 1659 1686 323 1671 
2503 1545 2629 3 15 1692 1676 1010 18 
287 328 378 755 548 766 618 828 820 
1840 1065 1720 1500 1027 1515 1031 1278 1667 
1681 387 1034 52 1047 1032 367 277 567 
318 278 649 568 608 629 776 806 816 
817 807 818 1838 1845 2841 1852 16 398 
25 51 508 337 347 607 368 648 338 
775 358 637 628 805 765 786 815 839 
840 841 831 842 1835 1836 1842 1839 2850 
763 794 850 849 795 824 835 851 852 
785 825 1849 1850 836 826 1851 837 1853 
827 838 1854 1855 829 1856 1857 1834 1858 
1859 1837 1860 1861 1863 1864 1865 1879 1880 
1866 1867 1881 1882 1868 1869 1883 1884 1870 
1871 1885 1886 1872 1873 1887 1888 1874 1875 
1889 1890 1876 1877 1891 1892 1878 1893 1894 
1895 1909 1910 1896 1897 1911 1912 1898 1899 
1913 1914 1900 1901 1915 1916 1902 1903 1917 
1918 1904 1905 1919 1920 1906 1907 1921 1922 
1908 1923 1924 1925 1939 1940 1926 1927 1941 
1942 1928 1929 1943 1944 1930 1931 1945 1946 
1932 1933 1947 1948 1934 1935 1949 1950 1937 
1952 1951 1936 1938 1953 2114 2115 2130 2131 
2116 2117 2132 2133 2118 2119 2134 2135 2120 
2121 2136 2137 2122 2123 2138 2139 2124 2125 
2140 2141 2126 2127 2142 2143 2128 2129 2144 
2145 2146 2147 2162 2163 2148 2149 2164 2165 
2150 2151 2166 2167 2152 2153 2168 2169 2154 
2155 2170 2171 2156 2157 2172 2173 2158 2159 
2174 2175 2160 2161 2176 2177 2178 2179 2194 
2195 2180 2181 2196 2197 2182 2183 2198 2199 
2184 2185 2200 2201 2186 2187 2202 2203 2188 
2189 2204 2205 2190 2191 2206 2207 2192 2193 
2208 2209 1954 1799 74 2984 631 3348 2743 
1829 641 3388 3406 1807 291 2053 3278 2779 
769 3188 3433 3299 94 3367 2765 2976 2797 
3128 2791 645 2793 1831 351 1758 2814 279 
2651 3137 2815 3482 3378 2816 389 2801 3279 
3474 2828 3473 1973 2988 3253 3472 2373 2605 
580 3012 2809 2637 2607 1812 3464 3446 2812 
2009 3259 2998 3369 1439 3269 2592 2455 2544 
2650 3255 3010 2012 3130 2010 3145 3226 2044 
3312 3035 2039 3057 2108 2626 3005 3343 3043 
3185 2030 3339 2057 2046 2051 2837 258 1980 
3334 2565 1806 3447 2729 2259 3284 3125 2757 
3165 3004 2497 3282 2321 2574 2342 2101 2424 
3212 2222 2096 2272 2337 3195 2293 2089 3042 
3044 2221 35 3407 95 1619 2418 2985 2635 
1847 3133 2036 3316 3187 2506 2496 3134 2112 
2357 2100 2073 2103 2425 2421 2490 2367 2405 
2400 2456 2277 2063 2375 2826 3475 3415 2371 
2502 2014 3359 2323 2028 3326 2599 3213 2262 
3244 3292 2403 3204 2521 2557 2282 3132 2494 
2302 2300 2314 2297 2298 2318 2350 2334 2358 
2834 3048 2825 3050 3242 3144 3003 1987 2016 
2038 2017 2419 2308 2075 2283 2047 2235 2336 
2401 2280 2249 2265 2313 2296 2281 2295 2328 
2299 2366 2312 2317 289 3049 2819 3174 2623 
2975 3054 3345 3214 2528 2239 3015 2352 2555 
2368 3183 2250 2285 2234 2393 2310 2218 2394 
2248 2311 2426 2360 2343 2329 2327 2345 3309 
3492 3158 3154 2669 2067 2972 2829 3398 2563 
2625 3135 2301 2510 2763 2284 2266 2320 2542 
2088 2458 2236 2279 2378 2264 2377 2395 2361 
2330 2344 2331 1994 2986 3437 3465 3159 3483 
3160 1989 3034 3246 2643 3045 3267 3014 2351 
2324 2288 2231 2233 2254 2427 2380 2346 2364 
2379 2316 2349 2347 3030 2430 2431 2432 2433 
2434 3389 2618 3060 1846 2591 3216 3403 2341 
2585 3323 2559 2420 2252 2410 2411 2267 2362 
2397 2412 2509 2398 2382 2348 2363 2435 2436 
2440 2441 2437 2438 2442 2443 2439 2444 2772 
2275 3352 2020 2359 2319 2005 2219 2479 2511 
2566 2247 2428 2381 2413 2365 2422 2460 2429 
2445 2446 2447 2448 2449 3456 3169 3227 2271 
2226 2718 2384 2229 2060 2113 2292 2416 2353 
2303 2255 2461 2459 2326 2294 2396 2278 2476 
2680 2681 2686 2687 2682 2683 2688 2689 2684 
2685 2690 3349 2983 1965 2099 3276 2407 3262 
2062 2102 2526 2069 2214 2286 2107 2253 2404 
2507 2402 2263 2489 2691 2692 2696 2697 2693 
2694 2698 2699 2695 2700 2824 3289 3476 2973 
2029 3365 2670 2577 2602 3233 2025 2335 2408 
2571 2537 2369 2055 2586 2589 2251 3232 2237 
2105 1825 2701 2702 2705 2832 3485 3484 2817 
2703 2704 3466 3221 3139 2535 2616 3205 2007 
2762 3206 2211 3126 2061 3236 2087 2505 2463 
3002 3274 2385 3222 3314 2220 2268 2064 3438 
2833 3457 3178 3189 3140 1976 2659 2649 2673 
3297 3393 3176 3337 2004 3016 2582 3235 3153 
2071 3202 2244 2049 2245 2570 2048 2276 3324 
2059 2225 3263 3280 3199 3495 2339 2019 2987 
2002 2978 3175 2609 2485 3053 3375 2759 1997 
3287 2575 3193 2545 2097 2289 3332 2080 2556 
2072 2230 3293 2085 3184 2065 3170 3408 3496 
3179 3329 1981 1974 3304 2486 2033 3335 3275 
3207 3217 2746 3024 3423 2766 3037 2256 2023 
2603 3052 3006 3313 3172 2608 1993 3224 3152 
2604 2257 3310 3477 3009 1990 2549 3190 2666 
3382 2498 2468 3286 2466 2737 2719 2011 3422 
2013 3376 572 3019 3394 2993 2820 3026 3396 
2543 2037 3046 2536 3379 3493 3219 3494 3428 
1985 1977 3180 2488 2619 2452 2484 3196 3336 
2642 2749 3366 2751 3395 3356 2747 3166 1964 
3177 1995 2773 2764 3136 3307 3355 2022 1719 
3399 2862 3419 3281 2999 3311 1982 3300 2990 
2655 2981 2667 2630 2516 2451 2639 2515 3266 
2713 2730 3354 3306 2787 2778 2716 3412 2774 
2050 2735 3247 2771 2745 3486 2845 3448 3400 
3250 3370 3230 2356 3261 3181 3000 1975 2354 
2962 2653 3302 3344 3021 2597 3392 2648 3372 
2641 2594 3373 2707 3402 2514 2499 2847 2846 
3506 3504 3467 3487 3320 3409 3390 3449 3360 
3301 3168 2989 3330 3161 3171 3210 2969 3191 
1413 2003 2726 3131 2390 3285 3051 1972 2646 
2624 2615 2842 2856 2844 2849 3497 3513 3498 
3478 3458 3505 3439 3468 3499 3489 3429 3200 
3410 3290 3350 3270 3421 3040 3251 3430 3341 
3391 3271 3240 3151 2851 2838 2853 2848 2854 
2855 3512 3503 2857 2858 3514 2859 3515 2860 
3516 3507 2861 3517 2863 3488 3508 2864 2865 
3518 3509 3469 3522 3523 3519 3510 3524 3459 
3525 3479 2866 2867 2882 2883 2868 2869 2884 
2885 2870 2871 2886 2887 2872 2873 2888 2889 
2874 2875 2890 2891 2876 2877 2892 2893 2878 
2879 2894 2895 2880 2881 2896 2897 2898 2899 
2914 2915 2900 2901 2916 2917 2902 2903 2918 
2919 2904 2905 2920 2921 2906 2907 2922 2923 
2908 2909 2924 2925 2910 2911 2926 2927 2912 
2913 2928 2929 2930 2931 2946 2947 2932 2933 
2948 2949 2934 2935 2950 2951 2936 2937 2952 
2953 2938 2939 2954 2955 2940 2941 2956 2957 
2959 2958 2943 2942 2960 2961 2945 2944 3062 
3063 3078 3079 3064 3065 3080 3081 3066 3067 
3082 3083 3068 3069 3084 3085 3070 3071 3086 
3087 3592 3593 3598 3599 3594 3595 3600 3601 
3596 3597 3602 3603 3094 3095 3110 3111 3096 
3097 3112 3113 3098 3099 3114 3115 3100 3101 
3116 3117 3102 3103 3118 3119 3604 3605 3610 
3611 3606 3607 3612 3613 3608 3609 3614 3615 
3090 3091 3120 3121 3088 3089 3108 3109 3076 
3077 3106 3107 3074 3075 3104 3105 3072 3073 
3092 3093 3616 3617 3622 3623 3618 3619 3624 
3625 3620 3621 3626 3627 1768 1752 2810 3425 
2307 2807 2800 2731 1727 539 2785 2742 3056 
2727 1955 1668 1956 2662 2454 1961 1962 1967 
3628 3629 3634 3635 3630 3631 3636 3637 3632 
3633 3638 3639 2823 3157 3272 2068 2560 3318 
3417 3032 3358 2995 2994 2783 3368 3377 2644 
1959 1957 2710 1968 3640 3641 3646 3647 3642 
3643 3648 3649 3644 3645 3650 3651 3362 2656 
3245 3455 2665 3333 3260 3418 3129 1979 2614 
3397 3149 3215 3319 2782 1958 2548 3652 3653 
3658 3659 3654 3655 3660 3661 3656 3657 3662 
3663 2086 3364 2992 2106 3059 3013 2472 3436 
2613 2638 3353 761 2979 2811 3028 3338 3249 
2082 3424 2098 3664 3665 3670 3671 3666 3667 
3672 3673 3668 3669 3674 3675 2223 2224 2572 
2529 2228 3383 2015 2040 2043 2593 2054 2664 
3198 2212 2081 1811 2963 3416 3442 3676 3677 
3682 3683 3679 3685 3684 3678 3681 3680 3686 
3687 2058 2554 2241 2399 2474 3203 2270 2480 
2464 3025 3296 3163 3264 2391 2045 1983 2243 
2767 2822 3443 1498 3688 3689 3694 3695 3690 
3691 3696 3697 3692 3693 3698 3699 2387 2540 
2522 2415 2094 3182 2553 2215 2406 2600 3237 
2636 3164 2567 3223 1817 3138 2654 3700 3701 
3706 3707 3702 3703 3708 3709 3704 3705 3710 
3711 2333 2541 2332 2240 3283 2273 2325 2091 
2309 2077 2568 2741 2261 3463 2997 2803 2786 
1714 3712 3713 3718 3719 3714 3715 3720 3721 
3716 3717 3722 3723 2525 2383 2414 2462 2315 
3192 2246 2539 2111 2093 3315 2520 3124 3426 
3173 3162 3295 2813 3414 3452 3218 2001 3724 
3725 3730 3731 3726 3727 3732 3733 3728 3729 
3734 3735 2478 2388 2473 2523 2508 2076 2457 
2269 2588 2291 2500 3186 3047 3294 2668 3258 
2006 2736 2622 2732 3736 3737 3742 3743 3738 
3739 3744 3745 3740 3741 3746 3747 2493 2491 
2475 2524 2074 2092 2109 3023 2671 2660 2027 
2501 2031 3142 2776 3435 1960 1970 3748 3749 
3754 3755 3750 3751 3756 3757 3752 3753 3758 
3759 2392 2389 2409 2477 2217 3305 2386 2260 
2070 2551 3033 3022 3363 3254 3445 3146 2768 
3444 3277 3760 3761 3766 3767 3762 3763 3768 
3769 3764 3765 3770 3771 2110 2376 2104 2492 
2305 2581 2340 2032 2041 2026 2552 2213 2583 
3147 3148 3122 1773 3017 1999 2258 3772 3773 
3775 3774 3777 3776 2370 2216 2090 2232 2504 
2238 2606 2527 2532 2558 2569 3434 3243 2996 
3156 1802 1753 2744 3778 3779 3784 3785 3780 
3781 3786 3787 3782 3783 3788 3789 2287 2304 
2495 2481 2538 2465 2417 3123 2587 1998 2640 
2579 3039 2000 762 3058 3298 3385 3036 2754 
3790 3791 3796 3797 3792 3793 3798 3799 3794 
3795 3800 3801 2573 2056 2561 3155 2584 2042 
2021 3322 2550 2227 3027 3029 3038 3234 2355 
2780 2708 2777 2530 3802 3803 3808 3809 3804 
3805 3810 3811 3806 3807 3812 3813 2652 2513 
2633 3018 3225 2008 1991 3453 2601 3208 3386 
3268 3008 2761 2717 2740 2965 3814 3815 3820 
3821 3816 3817 3822 3823 3818 3819 3824 3825 
2083 3342 3194 2079 3273 2095 3143 2784 2576 
3007 3308 3239 2631 3357 1963 3257 2469 2733 
2723 2966 2621 3826 3827 3832 3833 3828 3829 
3834 3835 3830 3831 3836 3837 2798 2024 341 
3055 2794 1734 3252 3256 3328 3248 2450 613 
2596 2792 3327 2739 2967 2970 2971 3838 3839 
3844 3845 3840 3841 3846 3847 3842 3843 3848 
3849 3167 2078 2620 3288 2374 2617 3347 3405 
2804 3127 1426 2982 2755 2677 2632 2712 2968 
2991 3011 3850 3851 3856 3857 3852 3853 3858 
3859 3854 3855 3860 3861 2512 1996 3228 2722 
2758 3197 2750 3432 2752 2775 3404 2290 2714 
2533 2084 2661 2679 2709 3031 3325 3041 3862 
3863 3868 3869 3870 3865 3864 3871 3872 3873 
3867 3866 3346 3413 1750 2724 636 2789 2756 
2720 2562 3317 2977 2964 3001 2734 2467 3201 
1969 3061 3874 3875 3880 3881 3876 3877 3882 
3883 3878 3879 3884 3885 2453 2676 3238 2711 
2612 2663 2760 2657 2306 2482 2647 2672 2210 
1971 3211 2322 3231 3291 2590 3331 3886 3887 
3892 3893 3888 3889 3894 3895 3890 3891 3896 
3897 2372 1966 2598 3265 1988 2519 2627 2611 
1984 1978 2675 2974 2035 3321 3381 2518 3411 
3898 3899 3904 3905 3900 3901 3906 3907 3902 
3903 3908 3909 3340 3020 2052 3401 3420 3361 
2634 3371 3220 3441 3141 3241 3150 3351 3461 
2980 3431 3471 3481 3910 3911 3916 3917 3912 
3913 3918 3919 3914 3915 3920 3921 3526 3480 
3450 3451 3527 3520 3528 3490 3460 3529 3500 
3380 3470 3530 3511 3440 3491 3501 3521 3531 
3922 3923 3928 3929 3924 3925 3930 3931 3926 
3927 3932 3933 3532 3533 3548 3549 3534 3535 
3550 3551 3536 3537 3552 3553 3538 3539 3554 
3555 3540 3541 3556 3557 3934 3935 3940 3941 
3936 3937 3942 3943 3938 3939 3944 3945 3564 
3565 3580 3581 3566 3567 3582 3583 3568 3569 
3584 3585 3570 3571 3586 3587 3572 3573 3588 
3589 3946 3947 3952 3953 3948 3949 3954 3955 
3950 3951 3956 3957 3560 3561 3590 3591 3558 
3559 3578 3579 3546 3547 3576 3577 3544 3545 
3574 3575 3542 3543 3562 3563 3958 3959 3964 
3965 3960 3961 3966 3967 3968 3963 3969 3962 

C_[0] 1 3969 double
0 0 0 0 0 0 0 0 0 
0 0 0 0 0 0 0 0 0 
0 0 0 0 0 0 0 0 0 
0 0 0 0 0 0 0 0 0 
0 0 0 0 0 0 0 0 0 
0 0 0 0 0 0 0 0 0 
0 0 0 0 0 0 0 0 0 
0 0 0 0 0 0 0 0 0 
0 0 0 0 0 0 0 0 0 
0 0 0 0 0 0 0 0 0 
0 0 0 0 0 0 0 0 0 
0 0 0 0 0 0 0 0 0 
0.00140004 0.00284348 0.00923015 0.0171642 0.0119299 0.00547067 0.0257692 0.0330743 0.00934285 
0.022558 0.0154901 0.0490967 0.0412892 0.0150341 0.0204769 0.0674736 0.0628202 0.0276416 
0.089497 0.0170623 0.0794636 0.0985804 0 0 0 0 0 
0 0 0 0 0 0 0 0.0248038 0.0149191 
0.00431864 0.00836421 0.0369448 0.0371513 0.0600869 0.0560135 0.0596736 0.0850598 0.0781944 
0.0992433 0.102677 0.118436 0.148545 0.125782 0.162902 0.131877 0.187006 0.157221 
0 0 0 0 0 0 0 0 0 