# vtk DataFile Version 3.0
Generated by LAMMPS
ASCII
DATASET POLYDATA
POINTS 3969 float
-0.607843 -0.607843 0 -0.588235 -0.607843 0 -0.607843 -0.588235 0 
-0.588235 -0.588235 0 -0.568627 -0.607843 0 -0.54902 -0.607843 0 
-0.568627 -0.588235 0 -0.54902 -0.588235 0 -0.529412 -0.607843 0 
-0.509804 -0.607843 0 -0.529412 -0.588235 0 -0.509804 -0.588235 0 
-0.490196 -0.607843 0 -0.470588 -0.607843 0 -0.490196 -0.588235 0 
-0.470588 -0.588235 0 -0.45098 -0.607843 0 -0.431373 -0.607843 0 
-0.45098 -0.588235 0 -0.431373 -0.588235 0 -0.411765 -0.607843 0 
-0.392157 -0.607843 0 -0.411765 -0.588235 0 -0.392157 -0.588235 0 
-0.372549 -0.607843 0 -0.352941 -0.607843 0 -0.372549 -0.588235 0 
-0.352941 -0.588235 0 -0.333333 -0.607843 0 -0.313726 -0.607843 0 
-0.333333 -0.588235 0 -0.313726 -0.588235 0 -0.607843 -0.568627 0 
-0.588235 -0.568627 0 -0.607843 -0.54902 0 -0.588235 -0.54902 0 
-0.568627 -0.568627 0 -0.54902 -0.568627 0 -0.568627 -0.54902 0 
-0.54902 -0.54902 0 -0.529412 -0.568627 0 -0.509804 -0.568627 0 
-0.529412 -0.54902 0 -0.509804 -0.54902 0 -0.490196 -0.568627 0 
-0.470588 -0.568627 0 -0.490196 -0.54902 0 -0.470588 -0.54902 0 
-0.45098 -0.568627 0 -0.431373 -0.568627 0 -0.45098 -0.54902 0 
-0.431373 -0.54902 0 -0.411765 -0.568627 0 -0.392157 -0.568627 0 
-0.411765 -0.54902 0 -0.392157 -0.54902 0 -0.372549 -0.568627 0 
-0.352941 -0.568627 0 -0.352941 -0.54902 0 -0.372549 -0.54902 0 
-0.333333 -0.568627 0 -0.313726 -0.568627 0 -0.313726 -0.54902 0 
-0.333333 -0.54902 0 -0.607843 -0.529412 0 -0.588235 -0.529412 0 
-0.607843 -0.509804 0 -0.588235 -0.509804 0 -0.568627 -0.529412 0 
-0.54902 -0.529412 0 -0.568627 -0.509804 0 -0.54902 -0.509804 0 
-0.529412 -0.529412 0 -0.509804 -0.529412 0 -0.529412 -0.509804 0 
-0.509804 -0.509804 0 -0.470588 -0.509804 0 -0.490196 -0.509804 0 
-0.470588 -0.529412 0 -0.490196 -0.529412 0 -0.431373 -0.509804 0 
-0.45098 -0.509804 0 -0.431373 -0.529412 0 -0.45098 -0.529412 0 
-0.392157 -0.509804 0 -0.411765 -0.509804 0 -0.392157 -0.529412 0 
-0.411765 -0.529412 0 -0.352941 -0.509804 0 -0.372549 -0.509804 0 
-0.352941 -0.529412 0 -0.372549 -0.529412 0 -0.313726 -0.509804 0 
-0.333333 -0.509804 0 -0.313726 -0.529412 0 -0.333333 -0.529412 0 
-0.607843 -0.490196 0 -0.588235 -0.490196 0 -0.607843 -0.470588 0 
-0.588235 -0.470588 0 -0.568627 -0.490196 0 -0.54902 -0.490196 0 
-0.568627 -0.470588 0 -0.54902 -0.470588 0 -0.529412 -0.490196 0 
-0.509804 -0.490196 0 -0.529412 -0.470588 0 -0.509804 -0.470588 0 
-0.5 -0.491844 0 -0.481017 -0.5 0 -0.484582 -0.474099 0 
-0.466061 -0.473201 0 -0.462739 -0.485235 0 -0.454177 -0.498253 0 
-0.449726 -0.464869 0 -0.435175 -0.474832 0 -0.431708 -0.5 0 
-0.425461 -0.483063 0 -0.408341 -0.496081 0 -0.412981 -0.470039 0 
-0.397099 -0.473686 0 -0.387444 -0.499435 0 -0.36502 -0.496497 0 
-0.380761 -0.478886 0 -0.361615 -0.470098 0 -0.349366 -0.490577 0 
-0.330712 -0.499063 0 -0.344753 -0.46905 0 -0.328423 -0.475167 0 
-0.311639 -0.494276 0 -0.313381 -0.469576 0 -0.607843 -0.45098 0 
-0.588235 -0.45098 0 -0.607843 -0.431373 0 -0.588235 -0.431373 0 
-0.568627 -0.45098 0 -0.54902 -0.45098 0 -0.568627 -0.431373 0 
-0.54902 -0.431373 0 -0.529412 -0.45098 0 -0.509804 -0.45098 0 
-0.529412 -0.431373 0 -0.509804 -0.431373 0 -0.474422 -0.453849 0 
-0.489188 -0.443862 0 -0.5 -0.46314 0 -0.5 -0.428559 0 
-0.472252 -0.428209 0 -0.460674 -0.442689 0 -0.441883 -0.443887 0 
-0.427148 -0.453291 0 -0.410528 -0.445282 0 -0.42457 -0.428051 0 
-0.394891 -0.450879 0 -0.394846 -0.429554 0 -0.376616 -0.459241 0 
-0.37821 -0.435305 0 -0.361596 -0.445745 0 -0.345832 -0.445774 0 
-0.331941 -0.428283 0 -0.328589 -0.450734 0 -0.312894 -0.428452 0 
-0.311312 -0.447793 0 -0.607843 -0.411765 0 -0.588235 -0.411765 0 
-0.607843 -0.392157 0 -0.588235 -0.392157 0 -0.568627 -0.411765 0 
-0.54902 -0.411765 0 -0.568627 -0.392157 0 -0.54902 -0.392157 0 
-0.529412 -0.411765 0 -0.509804 -0.411765 0 -0.529412 -0.392157 0 
-0.509804 -0.392157 0 -0.486432 -0.4139 0 -0.497392 -0.39236 0 
-0.471691 -0.404345 0 -0.44097 -0.423132 0 -0.456658 -0.41726 0 
-0.457626 -0.391559 0 -0.442961 -0.391686 0 -0.431048 -0.403437 0 
-0.410438 -0.417431 0 -0.41514 -0.396089 0 -0.396635 -0.404567 0 
-0.365573 -0.419987 0 -0.380486 -0.410084 0 -0.373193 -0.389004 0 
-0.358566 -0.397621 0 -0.348682 -0.421594 0 -0.338856 -0.404447 0 
-0.325154 -0.387805 0 -0.321118 -0.408375 0 -0.607843 -0.372549 0 
-0.588235 -0.372549 0 -0.607843 -0.352941 0 -0.588235 -0.352941 0 
-0.568627 -0.372549 0 -0.54902 -0.372549 0 -0.568627 -0.352941 0 
-0.54902 -0.352941 0 -0.529412 -0.372549 0 -0.509804 -0.372549 0 
-0.529412 -0.352941 0 -0.509804 -0.352941 0 -0.47811 -0.383166 0 
-0.489808 -0.367246 0 -0.495795 -0.348254 0 -0.474363 -0.348766 0 
-0.467481 -0.370525 0 -0.438356 -0.365953 0 -0.451526 -0.361758 0 
-0.426093 -0.376601 0 -0.390197 -0.383503 0 -0.406304 -0.377438 0 
-0.41447 -0.357792 0 -0.398121 -0.352214 0 -0.384302 -0.363689 0 
-0.366985 -0.367554 0 -0.354162 -0.359524 0 -0.348219 -0.382867 0 
-0.335583 -0.370857 0 -0.337125 -0.348459 0 -0.319686 -0.355128 0 
-0.311298 -0.373758 0 -0.607843 -0.333333 0 -0.588235 -0.333333 0 
-0.607843 -0.313726 0 -0.588235 -0.313726 0 -0.568627 -0.333333 0 
-0.54902 -0.333333 0 -0.568627 -0.313726 0 -0.54902 -0.313726 0 
-0.529412 -0.333333 0 -0.509804 -0.333333 0 -0.529412 -0.313726 0 
-0.509804 -0.313726 0 -0.478978 -0.330636 0 -0.480951 -0.30974 0 
-0.499627 -0.32203 0 -0.464271 -0.317228 0 -0.45948 -0.341446 0 
-0.438112 -0.338562 0 -0.445963 -0.323689 0 -0.423243 -0.342248 0 
-0.405803 -0.331047 0 -0.41939 -0.317912 0 -0.389647 -0.325159 0 
-0.379844 -0.342117 0 -0.365069 -0.337902 0 -0.367477 -0.315337 0 
-0.351748 -0.30879 0 -0.348689 -0.334156 0 -0.315045 -0.31182 0 
-0.320849 -0.333345 0 -0.335163 -0.320366 0 -0.607843 -0.294118 0 
-0.588235 -0.294118 0 -0.607843 -0.27451 0 -0.588235 -0.27451 0 
-0.568627 -0.294118 0 -0.54902 -0.294118 0 -0.568627 -0.27451 0 
-0.54902 -0.27451 0 -0.529412 -0.294118 0 -0.509804 -0.294118 0 
-0.529412 -0.27451 0 -0.509804 -0.27451 0 -0.469383 -0.271053 0 
-0.496445 -0.289965 0 -0.477739 -0.292309 0 -0.447868 -0.270763 0 
-0.435902 -0.285201 0 -0.46128 -0.290233 0 -0.447479 -0.30263 0 
-0.429633 -0.306823 0 -0.420646 -0.277075 0 -0.410441 -0.290519 0 
-0.391246 -0.286965 0 -0.401839 -0.30636 0 -0.37596 -0.279661 0 
-0.363127 -0.290076 0 -0.381236 -0.306565 0 -0.345308 -0.28774 0 
-0.321008 -0.281112 0 -0.330744 -0.299874 0 -0.607843 -0.254902 0 
-0.588235 -0.254902 0 -0.607843 -0.235294 0 -0.588235 -0.235294 0 
-0.568627 -0.254902 0 -0.54902 -0.254902 0 -0.568627 -0.235294 0 
-0.54902 -0.235294 0 -0.529412 -0.254902 0 -0.509804 -0.254902 0 
-0.529412 -0.235294 0 -0.509804 -0.235294 0 -0.480436 -0.262336 0 
-0.495477 -0.258548 0 -0.46764 -0.240374 0 -0.494361 -0.236047 0 
-0.435747 -0.25819 0 -0.456527 -0.25116 0 -0.441835 -0.234492 0 
-0.408094 -0.26191 0 -0.393316 -0.264719 0 -0.422683 -0.24712 0 
-0.406171 -0.239286 0 -0.391168 -0.231821 0 -0.35284 -0.266751 0 
-0.368019 -0.258879 0 -0.382465 -0.249005 0 -0.362307 -0.237308 0 
-0.333525 -0.269142 0 -0.345718 -0.247737 0 -0.327999 -0.247371 0 
-0.313624 -0.256248 0 -0.607843 -0.215686 0 -0.588235 -0.215686 0 
-0.607843 -0.196078 0 -0.588235 -0.196078 0 -0.568627 -0.215686 0 
-0.54902 -0.215686 0 -0.568627 -0.196078 0 -0.54902 -0.196078 0 
-0.529412 -0.215686 0 -0.509804 -0.215686 0 -0.529412 -0.196078 0 
-0.509804 -0.196078 0 -0.474597 -0.226713 0 -0.476393 -0.209965 0 
-0.470908 -0.192867 0 -0.498904 -0.216089 0 -0.451031 -0.221851 0 
-0.433777 -0.208278 0 -0.455041 -0.202915 0 -0.423787 -0.224839 0 
-0.409991 -0.213967 0 -0.392064 -0.210371 0 -0.417076 -0.194964 0 
-0.372951 -0.223591 0 -0.356278 -0.208643 0 -0.374957 -0.202306 0 
-0.34638 -0.224324 0 -0.328946 -0.225819 0 -0.33204 -0.205784 0 
-0.311065 -0.198736 0 -0.311618 -0.227386 0 -0.607843 -0.176471 0 
-0.588235 -0.176471 0 -0.607843 -0.156863 0 -0.588235 -0.156863 0 
-0.568627 -0.176471 0 -0.54902 -0.176471 0 -0.568627 -0.156863 0 
-0.54902 -0.156863 0 -0.529412 -0.176471 0 -0.509804 -0.176471 0 
-0.529412 -0.156863 0 -0.509804 -0.156863 0 -0.488216 -0.190949 0 
-0.490733 -0.174697 0 -0.493042 -0.157698 0 -0.46343 -0.163279 0 
-0.440281 -0.189013 0 -0.456816 -0.177154 0 -0.439783 -0.165088 0 
-0.397831 -0.191088 0 -0.424522 -0.177768 0 -0.404683 -0.170711 0 
-0.416928 -0.157002 0 -0.391201 -0.155517 0 -0.364579 -0.186864 0 
-0.385053 -0.178971 0 -0.373315 -0.164671 0 -0.354515 -0.166143 0 
-0.346617 -0.190149 0 -0.326032 -0.189223 0 -0.339877 -0.168833 0 
-0.324064 -0.164267 0 -0.308815 -0.170578 0 -0.607843 -0.137255 0 
-0.588235 -0.137255 0 -0.607843 -0.117647 0 -0.588235 -0.117647 0 
-0.568627 -0.137255 0 -0.54902 -0.137255 0 -0.568627 -0.117647 0 
-0.54902 -0.117647 0 -0.529412 -0.137255 0 -0.509804 -0.137255 0 
-0.529412 -0.117647 0 -0.509804 -0.117647 0 -0.468036 -0.150291 0 
-0.483031 -0.137413 0 -0.467856 -0.124603 0 -0.49729 -0.131609 0 
-0.44121 -0.147977 0 -0.452856 -0.133398 0 -0.433137 -0.123728 0 
-0.423408 -0.139726 0 -0.401898 -0.140878 0 -0.409129 -0.121383 0 
-0.388378 -0.124957 0 -0.361683 -0.145478 0 -0.377102 -0.139724 0 
-0.347495 -0.13734 0 -0.358675 -0.117015 0 -0.332293 -0.141349 0 
-0.31472 -0.144526 0 -0.335234 -0.119749 0 -0.315942 -0.123129 0 
-0.607843 -0.0980392 0 -0.588235 -0.0980392 0 -0.607843 -0.0784314 0 
-0.588235 -0.0784314 0 -0.568627 -0.0980392 0 -0.54902 -0.0980392 0 
-0.568627 -0.0784314 0 -0.54902 -0.0784314 0 -0.529412 -0.0980392 0 
-0.509804 -0.0980392 0 -0.529412 -0.0784314 0 -0.509804 -0.0784314 0 
-0.463602 -0.10813 0 -0.478651 -0.102492 0 -0.494647 -0.107885 0 
-0.471142 -0.0835409 0 -0.484836 -0.0785678 0 -0.443059 -0.111261 0 
-0.439425 -0.0941951 0 -0.450895 -0.0814997 0 -0.416116 -0.105983 0 
-0.396281 -0.103987 0 -0.422022 -0.0884774 0 -0.398493 -0.084526 0 
-0.373108 -0.114088 0 -0.34925 -0.102241 0 -0.379631 -0.0934475 0 
-0.364747 -0.0863398 0 -0.342886 -0.0847897 0 -0.327126 -0.102374 0 
-0.316892 -0.0869613 0 -0.607843 -0.0588235 0 -0.588235 -0.0588235 0 
[...]
POINT_DATA 3969
FIELD FieldData 5
id 1 3969 int
161 162 167 168 163 164 169 170 165 
166 171 172 107 108 123 124 109 110 
125 126 111 112 127 128 113 114 129 
130 115 116 131 132 173 174 179 180 
175 176 181 182 177 178 183 184 139 
140 155 156 141 142 157 158 143 144 
159 160 145 146 153 154 147 148 151 
152 185 186 191 192 187 188 193 194 
189 190 195 196 119 120 149 150 117 
118 137 138 105 106 135 136 103 104 
133 134 101 102 121 122 197 198 203 
204 199 200 205 206 201 202 207 208 
1013 1015 1499 2242 1019 1021 1759 2628 1023 
2645 2470 1732 771 1411 2483 54 2799 263 
2546 621 642 2728 3229 209 210 215 216 
211 212 217 218 213 214 219 220 2788 
1016 1009 9 623 1779 280 1832 3387 1504 
1808 519 65 1029 334 27 584 779 1608 
83 221 222 227 228 223 224 229 230 
225 226 231 232 622 1803 1780 1774 531 
1816 1793 770 1790 1307 379 574 640 1682 
1277 1044 1069 1148 1674 233 234 239 240 
235 236 241 242 237 238 243 244 292 
1798 1529 610 1775 1809 62 759 1580 1126 
85 1691 1354 1298 1581 1381 1093 345 1573 
1125 245 246 251 252 247 248 253 254 
249 250 255 256 571 1794 2487 632 1665 
1683 73 1602 562 1486 1535 1094 1259 1124 
1138 325 1538 1632 1117 407 408 413 414 
409 410 415 416 411 412 417 418 1646 
1776 1046 586 1276 13 791 1076 1043 88 
1263 1339 1294 1401 1310 1492 1105 1357 419 
420 425 426 421 422 427 428 423 424 
429 430 2790 1592 390 614 344 354 19 
1519 1265 503 1252 1643 1386 1387 1131 1456 
1416 1328 1341 1569 431 432 437 438 433 
434 439 440 435 436 441 442 369 2531 
2769 1017 33 1101 792 1324 1151 1290 1109 
1524 1431 1275 1317 1348 1331 1330 1302 443 
444 449 450 445 446 451 452 447 448 
453 454 2753 96 655 260 1657 320 1395 
1153 1129 1266 1088 1104 1372 1139 1371 1400 
1343 1347 1362 1329 1375 455 456 461 462 
457 458 463 464 459 460 465 466 2748 
86 564 1022 570 540 1576 556 1267 313 
1305 1344 1359 1358 1455 1346 1345 1555 1374 
467 468 473 474 469 470 475 476 471 
472 477 478 611 1778 1058 2738 782 1099 
43 1293 333 1597 1452 1110 1482 1373 1121 
1496 1423 1572 1541 479 480 485 486 481 
482 487 488 483 484 489 490 1020 36 
654 1012 1614 1745 1051 1453 1295 1588 1135 
1325 355 1118 1119 1321 1320 1133 491 492 
493 494 495 496 400 1725 7 1730 554 
612 330 1610 1501 1599 1084 1640 506 1147 
1261 1090 1645 1257 592 381 657 658 663 
664 659 660 665 666 661 662 667 668 
1763 644 590 1018 520 1782 781 1815 301 
1091 270 542 1593 1059 1647 1092 1396 1152 
669 670 675 676 671 672 677 678 673 
674 679 680 2471 1143 312 1618 2674 1081 
2806 1598 560 1637 1560 1651 1556 1323 314 
1633 1532 1551 1140 1253 304 681 682 687 
688 683 684 689 690 685 686 691 692 
34 2034 2658 2706 63 550 2721 1830 1791 
1656 396 1438 1611 523 1483 1689 534 1586 
1108 693 694 699 700 695 696 701 702 
697 698 703 704 2725 1770 1487 1622 2770 
1761 1368 1338 1543 1547 555 1688 1639 1264 
1521 1087 1369 1141 705 706 711 712 707 
708 713 714 709 710 715 716 1814 1784 
501 1726 1728 2517 392 1813 545 2802 510 
1672 1155 55 45 1063 1107 1123 1049 275 
717 718 723 724 719 720 725 726 721 
722 727 728 1577 646 2 1 1533 53 
1986 331 1738 1661 1797 1735 380 1792 530 
66 1795 97 282 653 729 730 735 736 
731 732 737 738 733 734 739 740 1652 
1729 21 302 2678 1787 2018 1590 1484 1764 
1756 1743 633 772 1760 1398 1041 1062 741 
742 747 748 743 744 749 750 745 746 
751 752 1014 4 31 41 61 1786 5 
6 11 1742 1769 1680 1767 581 1054 1080 
1762 1749 261 48 521 1800 913 914 919 
920 915 916 921 922 917 918 923 924 
257 1677 91 2610 1620 1664 1741 1531 1650 
1723 512 1518 1783 532 391 1687 1746 361 
1744 98 925 926 931 932 927 928 933 
934 929 930 935 936 1693 357 596 507 
2580 1383 71 1098 2564 594 1033 1675 1503 
8 1038 2547 553 1514 937 938 943 944 
939 940 945 946 941 942 947 948 2066 
547 1026 597 647 397 1128 317 20 1558 
1607 1397 1559 1673 22 514 1563 1621 1578 
949 950 955 956 951 952 957 958 953 
954 959 960 577 753 783 793 557 527 
72 348 617 327 627 537 297 587 598 
1028 10 377 1112 517 961 962 967 968 
963 964 969 970 965 966 971 972 774 
803 833 558 843 813 814 844 773 784 
845 754 823 804 846 847 764 834 848 
973 974 979 980 975 976 981 982 977 
978 983 984 859 860 875 876 861 862 
877 878 863 864 879 880 865 866 881 
882 867 868 883 884 985 986 991 992 
987 988 993 994 989 990 995 996 891 
892 907 908 893 894 909 910 895 896 
911 912 897 898 905 906 899 900 903 
904 997 998 1003 1004 999 1000 1005 1006 
1001 1002 1007 1008 871 872 901 902 869 
870 889 890 857 858 887 888 855 856 
885 886 853 874 873 854 1159 1160 1174 
1175 1161 1162 1176 1177 1163 1164 1178 1179 
1165 1166 1180 1181 1167 1168 1182 1183 1169 
1170 1184 1185 1171 1172 1186 1187 1173 1188 
1189 1190 1204 1205 1191 1192 1206 1207 1193 
1194 1208 1209 1195 1196 1210 1211 1197 1198 
1212 1213 1199 1200 1214 1215 1201 1202 1216 
1217 1203 1218 1219 1220 1234 1235 1221 1222 
1236 1237 1223 1224 1238 1239 1225 1226 1240 
1241 1227 1228 1242 1243 1229 1230 1244 1245 
1231 1232 1246 1247 1233 1248 370 1818 652 
1788 3374 1158 1064 1748 582 3462 84 2781 
780 559 1992 1308 2818 801 1810 2795 2808 
2715 1833 2821 82 600 1777 3384 1799 768 
499 382 1658 1425 271 1737 1591 375 758 
1073 1067 342 1826 812 1642 651 1827 1306 
1513 14 339 403 26 516 1096 589 1824 
2796 802 2534 1296 1596 89 1095 522 1292 
366 50 552 1516 1546 336 1628 1045 767 
1550 1146 1127 1627 1071 99 266 1024 1648 
1717 790 265 566 799 1100 1669 283 1520 
356 1567 1089 1477 406 1409 1445 1507 343 
1511 1260 1540 1156 1144 1410 376 395 1061 
49 573 513 67 303 1502 757 1353 290 
259 2836 1102 1554 285 1342 1568 1384 1122 
1415 1327 1603 1301 1315 1424 1625 1356 525 
1086 1522 1366 1571 1582 335 262 1552 524 
1736 509 1663 70 289 268 93 349 399 
1286 1446 1314 1370 1349 1285 1287 1271 1270 
1601 1316 1350 1313 1458 1367 1299 1594 1380 
1585 1337 1718 1280 1116 1103 620 2274 498 
533 329 789 2819 1050 1485 1318 1332 1364 
1333 1392 1407 1406 1393 1379 1421 1334 1451 
1429 1449 1355 1312 1570 1553 1085 1542 1322 
264 1309 535 402 1068 39 3309 28 1785 
822 1378 1377 1363 1376 1420 1391 1404 1405 
1403 1390 1481 1490 1340 1272 363 276 405 
1526 1060 78 502 583 1804 593 1641 1106 
1561 3209 12 3303 1360 1432 1389 1447 1361 
1402 1388 1418 1436 1434 1494 1422 1303 1300 
1527 1251 1587 383 561 606 75 798 585 
549 528 788 778 3427 309 1493 1417 1509 
1539 1523 1448 1433 1508 1408 1443 1435 1256 
1268 1249 1505 1606 1536 305 504 1056 1626 
79 17 800 579 307 319 64 388 1441 
1478 1510 1137 1480 1479 1495 1419 1450 1442 
1288 1255 1414 1352 1557 1679 316 624 1055 
1615 1589 777 1805 269 1459 1460 3454 1579 
1461 1134 1120 1336 1437 1525 1394 1274 1273 
1440 1311 1474 1326 1604 77 1154 656 1721 
1690 518 29 569 1462 1466 1823 1463 1464 
1467 1468 1465 1469 1281 1304 1136 1512 1289 
1150 1254 1335 1497 1319 1283 1624 386 1584 
1279 626 1530 1053 1036 1470 810 1472 1471 
1473 1537 1365 1149 1258 1351 1291 1534 1282 
1284 1269 1457 326 1075 286 1130 306 1040 
1132 401 1074 1694 1695 1699 1822 809 299 
1696 1697 1700 1701 1698 1702 1262 1489 284 
1612 1491 1385 1476 1644 1660 1635 296 1629 
602 353 1636 1382 59 1703 1707 2840 756 
1704 1705 1708 1709 811 1706 1710 1616 1565 
1574 1430 1506 1297 1475 60 1609 1113 394 
1564 544 1145 315 56 1048 1427 615 1751 
24 1595 1843 619 1711 1712 1820 1862 1713 
1828 2830 1070 1114 90 575 1428 505 546 
1631 384 374 37 565 404 46 1617 322 
625 1077 1684 373 1082 295 2423 310 298 
599 609 2852 819 1841 832 1600 1399 515 
346 1115 601 1662 311 365 1613 364 340 
1250 1444 68 1072 603 595 1766 352 1655 
81 497 1638 1025 2831 630 808 1848 30 
2805 500 760 1042 350 1039 1157 1634 526 
385 511 1528 1562 635 272 47 2595 1747 
2578 1733 372 1011 100 1649 92 1083 588 
3502 1821 797 2839 44 76 1566 1605 38 
1079 1678 591 576 1575 1066 1111 634 57 
1583 293 294 1454 1654 1653 1037 1623 536 
324 23 267 300 1097 1844 538 821 796 
321 1796 1549 40 1142 643 87 1078 1057 
360 1685 1781 371 1544 332 1548 604 563 
1722 1724 2338 1052 1630 42 650 32 308 
1819 2843 830 58 1801 1765 551 1715 273 
274 541 616 1716 1771 69 1412 1754 2629 
1670 362 543 15 1666 1030 18 378 288 
578 639 548 787 2835 820 393 1772 1739 
1731 80 1740 1755 1659 1686 323 1671 2503 
1545 3 1032 1692 1676 1010 287 328 629 
278 755 766 618 816 828 1840 1838 1065 
1027 1517 1488 1035 605 1500 1720 1515 1031 
1278 1667 1681 387 1034 52 1047 367 277 
567 318 568 649 608 815 776 806 817 
807 818 1845 2841 1852 2842 25 51 638 
398 16 508 337 607 347 368 648 775 
338 358 637 628 805 765 786 839 840 
841 831 842 1836 1835 1842 1839 2850 763 
794 850 849 795 824 851 835 852 785 
1849 825 1850 836 1851 826 837 1853 827 
1854 838 1855 829 1857 1856 1834 1858 1859 
1837 1860 1861 1863 1864 1865 1879 1880 1866 
1867 1881 1882 1868 1869 1883 1884 1870 1871 
1885 1886 1872 1873 1887 1888 1874 1875 1889 
1890 1876 1877 1891 1892 1878 1893 1894 1895 
1909 1910 1896 1897 1911 1912 1898 1899 1913 
1914 1900 1901 1915 1916 1902 1903 1917 1918 
1904 1905 1919 1920 1906 1907 1921 1922 1908 
1923 1924 1925 1939 1940 1926 1927 1941 1942 
1928 1929 1943 1944 1930 1931 1945 1946 1932 
1933 1947 1948 1934 1935 1949 1950 1951 1936 
1937 1952 1953 1938 2114 2115 2130 2131 2116 
2117 2132 2133 2118 2119 2134 2135 2120 2121 
2136 2137 2122 2123 2138 2139 2124 2125 2140 
2141 2126 2127 2142 2143 2128 2129 2144 2145 
2146 2147 2162 2163 2148 2149 2164 2165 2150 
2151 2166 2167 2152 2153 2168 2169 2154 2155 
2170 2171 2156 2157 2172 2173 2158 2159 2174 
2175 2160 2161 2176 2177 2178 2179 2194 2195 
2180 2181 2196 2197 2182 2183 2198 2199 2184 
2185 2200 2201 2186 2187 2202 2203 2188 2189 
2204 2205 2190 2191 2206 2207 2192 2193 2208 
2209 1954 74 631 281 2984 3348 3137 2814 
1829 3482 2743 641 3406 3278 389 3388 1807 
2779 291 3433 2053 3367 769 3188 2765 3299 
2791 94 2976 645 351 279 2998 1439 359 
3269 3369 2651 3334 2544 2815 2592 2650 2455 
3378 2816 3130 2801 3255 3279 3010 2012 3474 
1973 3473 2828 2988 3253 3472 2373 580 2605 
2051 258 529 35 2837 1980 3407 1806 2418 
3447 2635 1847 2565 2985 2729 3125 2259 3284 
3133 3165 2757 2010 3004 3226 3145 2497 2039 
2044 3035 3312 1619 1789 3475 3415 95 2826 
3359 2834 2502 2371 2014 3242 3316 2036 2323 
3326 2028 3187 2599 3213 2506 3134 2496 3282 
2357 2112 2100 2321 2574 2342 2101 2424 3048 
2825 3049 3144 3050 3003 1987 3054 2038 2419 
3214 2528 2017 2016 2047 2555 2075 3244 2283 
2308 2262 2557 3292 2521 2403 3132 3204 2073 
2096 2103 2421 2975 3174 2623 3345 2829 2669 
3398 2239 3015 2763 2563 3183 2368 2301 2510 
2352 2285 2234 2284 2401 2235 2336 2250 2282 
2280 2302 2300 2494 2314 2456 3154 2067 3492 
2972 2625 3246 3135 3267 3014 2591 2088 3045 
2288 2341 2266 2542 2320 2393 2218 2248 2236 
2458 2249 2310 2394 2295 2265 2313 2281 2296 
3158 3483 1989 3034 3216 3060 2772 3389 3403 
2559 2275 2359 3323 2420 2351 2324 2254 2585 
2252 2279 2231 2233 2427 2426 2264 2395 2311 
2343 3159 2986 3160 2643 3352 1846 3227 2020 
2005 2384 2271 2718 2319 2229 2060 2267 2479 
2511 2219 2380 2379 2410 2411 2346 2378 2377 
2347 2364 2360 2327 2361 2330 1994 3465 2618 
3437 2226 3169 1965 3456 2407 2099 3276 2113 
2292 2416 2526 3262 2353 2566 2303 2102 2412 
2247 2362 2397 2428 2348 2349 2344 2331 2316 
3030 2430 2431 2432 1757 2433 2434 2983 3289 
2029 2973 2602 3365 2577 2062 2255 2214 2396 
2326 2413 2381 2294 2460 2363 2365 2382 2478 
2462 2388 2493 2398 2435 2436 2440 2441 2437 
2438 2442 2443 2439 2444 3349 2824 2670 3205 
2025 2535 2069 3233 2335 2408 3126 2461 2107 
2459 2286 2422 2429 2491 2509 2389 2475 2473 
2445 2446 2447 2448 2449 3476 3139 2007 2616 
2762 2537 2211 2571 2369 2404 2055 2253 2489 
2492 2278 2476 2477 2524 2376 2409 2392 2680 
2681 2686 2687 2682 2683 2688 2689 2684 2685 
2690 1976 2817 3221 3206 2659 2061 3236 3016 
2004 2586 2251 2505 2402 2263 2237 2110 2340 
2104 2090 2691 2692 2696 2697 2693 2694 2698 
2699 3484 2695 2700 3466 3140 2649 3297 3393 
3176 2463 3235 2582 2087 3002 2589 3222 2105 
2507 2304 2238 2370 2216 2287 2701 2702 2705 
3485 2833 2832 1825 2703 2704 3178 3438 3189 
2609 2339 2019 2673 3337 3375 3175 1997 3153 
2244 2071 2575 3202 2385 3274 2245 2268 2064 
3232 2220 2059 2481 2495 2538 2827 3457 3495 
3280 3199 2987 2978 2002 3053 2485 2759 3287 
3275 2545 2097 3332 3193 2049 2080 2570 2048 
2225 3324 2276 3314 2561 2573 2056 3170 3408 
3496 3179 3329 1981 1974 3304 2486 2033 2746 
3335 3207 3423 3217 3024 2766 2256 3052 2289 
2556 2072 2230 2065 2085 3184 3263 3342 2652 
3293 2083 2513 3009 3310 3477 3190 1990 2666 
2549 2498 3286 3382 2737 3037 2011 2023 2603 
2013 3019 3006 3313 2993 3172 2608 3224 2257 
3152 3273 3194 2079 3379 3219 3493 1985 1977 
2619 2468 3180 2484 2466 2452 3336 2719 3376 
3422 3395 3366 2747 572 3394 2820 3026 3177 
3396 2543 2604 2536 3046 1993 2798 3167 2024 
2078 3494 3428 3281 3399 2488 2999 2990 2655 
2642 2667 3196 2630 2749 2451 3266 2751 3356 
3166 2787 1964 1995 2773 2764 2037 3355 1719 
3228 1996 2620 2862 3419 3486 3300 3311 1982 
2356 3250 2981 2639 2354 3181 2516 2713 2515 
2730 3354 3306 2778 2716 3412 2774 2050 2771 
3247 2022 3307 2745 3413 3136 2722 1750 2845 
3448 2847 3506 3400 3370 3230 3409 3261 3000 
1975 3301 2962 2653 3021 3344 3302 2597 3392 
2648 3372 2641 2594 3373 2707 3402 2514 2676 
2735 2453 2499 3346 2846 3504 3467 3487 3320 
3390 3449 3360 3168 2989 3330 3161 3200 3171 
3210 2969 3191 1413 2003 2726 2390 3131 3285 
3051 1972 2624 2372 2646 2615 1966 2856 2844 
2849 3497 3513 3498 3512 3478 3458 3505 3439 
3468 3499 3489 3429 3410 3290 3350 3270 3040 
3421 3251 3430 3151 3341 3391 3271 3240 2851 
2838 2853 2848 2854 2855 3503 2857 3514 2858 
2859 3515 3516 2860 3507 2861 3517 2863 3488 
3508 2864 3518 2865 3509 3469 3522 3523 3519 
3459 3510 3524 3525 3479 2866 2867 2882 2883 
2868 2869 2884 2885 2870 2871 2886 2887 2872 
2873 2888 2889 2874 2875 2890 2891 2876 2877 
2892 2893 2878 2879 2894 2895 2880 2881 2896 
2897 2898 2899 2914 2915 2900 2901 2916 2917 
2902 2903 2918 2919 2904 2905 2920 2921 2906 
2907 2922 2923 2908 2909 2924 2925 2910 2911 
2926 2927 2912 2913 2928 2929 2930 2931 2946 
2947 2932 2933 2948 2949 2934 2935 2950 2951 
2936 2937 2952 2953 2938 2939 2954 2955 2940 
2941 2956 2957 2959 2958 2943 2942 2960 2961 
2944 2945 3062 3063 3078 3079 3064 3065 3080 
3081 3066 3067 3082 3083 3068 3069 3084 3085 
3070 3071 3086 3087 3592 3593 3598 3599 3594 
3595 3600 3601 3596 3597 3602 3603 3094 3095 
3110 3111 3096 3097 3112 3113 3098 3099 3114 
3115 3100 3101 3116 3117 3102 3103 3118 3119 
3604 3605 3610 3611 3606 3607 3612 3613 3608 
3609 3614 3615 3090 3091 3120 3121 3088 3089 
3108 3109 3076 3077 3106 3107 3074 3075 3104 
3105 3072 3073 3092 3093 3616 3617 3622 3623 
3618 3619 3624 3625 3620 3621 3626 3627 1752 
1758 3128 2797 2793 1831 3425 1768 2731 2807 
2800 1727 2742 2785 2727 1955 1956 1668 2454 
1961 1962 1967 3628 3629 3634 3635 3630 3631 
3636 3637 3632 3633 3638 3639 3464 2637 2809 
2812 2307 3259 3272 2810 2823 3318 539 2995 
3056 2783 2662 2644 1959 2710 1968 3640 3641 
3646 3647 3642 3643 3648 3649 3644 3645 3650 
3651 3012 2607 3343 2626 3057 2108 1812 3185 
3446 2009 2068 3157 2560 3032 3368 3358 2994 
3377 3397 1957 1958 3652 3653 3658 3659 3654 
3655 3660 3661 3656 3657 3662 3663 2272 3005 
3212 3043 3339 2030 2057 2046 3455 2656 3333 
3417 1979 3129 2782 3319 2548 2082 3664 3665 
3670 3671 3666 3667 3672 3673 3668 3669 3674 
3675 2222 2337 2293 2425 3195 3042 2089 3044 
3245 3362 2665 2086 3215 3260 2614 3249 761 
2098 2963 3676 3677 3682 3683 3678 3679 3685 
3684 3681 3687 3680 3686 2400 2405 2367 2297 
2063 2375 2572 2490 2221 2106 2992 2472 3059 
3364 2613 2638 3418 3149 2811 3442 3424 3338 
3688 3689 3694 3695 3690 3691 3696 3697 3692 
3693 3698 3699 2334 2318 2298 2277 2358 2529 
2223 3013 3436 2224 2228 2979 3353 2043 3028 
1498 3198 3700 3701 3706 3707 3702 3703 3708 
3709 3704 3705 3710 3711 2350 2328 2366 2299 
2312 2241 2474 2399 2554 2015 2040 2480 3383 
2212 2593 2664 2054 1811 3416 2767 3443 1817 
3712 3713 3718 3719 3714 3715 3720 3721 3716 
3717 3722 3723 2317 2415 2329 2333 2345 2387 
2058 2540 2094 2464 2270 3025 3264 2081 1983 
2243 2822 2654 1714 3724 3725 3730 3731 3726 
3727 3732 3733 3728 3729 3734 3735 2541 2332 
2315 2522 2553 3283 2240 3203 3296 2215 3182 
2406 3163 2045 2391 3223 3138 3414 2001 3736 
3737 3742 3743 3738 3739 3744 3745 3740 3741 
3746 3747 2525 2383 2539 2414 2325 2273 2246 
2077 2600 2091 3237 2636 3164 2567 2741 2803 
2786 2736 2732 3748 3749 3754 3755 3750 3751 
3756 3757 3752 3753 3758 3759 2508 2523 2457 
3192 2111 2093 2076 2309 2261 2568 3124 3463 
2997 3426 2813 3452 3218 1960 1970 3760 3761 
3766 3767 3762 3763 3768 3769 3764 3765 3770 
3771 2092 2109 2074 2269 2520 2291 3186 3315 
3162 2588 3294 3173 3295 3047 2006 2622 2776 
2768 3277 3772 3773 3775 3774 3776 3777 2386 
2260 3305 3023 2217 2070 2027 2660 3142 2501 
2671 2500 2668 3146 2031 3258 2258 1773 3435 
3778 3779 3784 3785 3780 3781 3786 3787 3782 
3783 3788 3789 2305 2581 2606 3033 2551 2041 
2026 3363 3254 2583 3147 3022 3445 3148 3017 
3444 1999 2744 1753 3790 3791 3796 3797 3792 
3793 3798 3799 3794 3795 3800 3801 2032 2504 
2232 2417 2465 2213 2558 2527 2569 2552 3122 
2996 2532 3156 3243 1802 3385 3434 3036 2754 
2708 3802 3803 3808 3809 3804 3805 3810 3811 
3806 3807 3812 3813 3155 3123 2584 2587 2640 
3039 3322 2000 1998 2579 3058 3029 762 3298 
2355 2780 2530 2717 3814 3815 3820 3821 3816 
3817 3822 3823 3818 3819 3824 3825 2042 2021 
2633 2227 3027 1991 3225 2550 3234 2008 3386 
3038 3208 3008 2761 2777 2965 2740 2733 2966 
3826 3827 3832 3833 3828 3829 3834 3835 3830 
3831 3836 3837 2095 3018 2784 2576 3143 2601 
3308 3239 3453 3268 3007 3357 3257 1963 2469 
2723 2621 2739 2967 3838 3839 3844 3845 3840 
3841 3846 3847 3842 3843 3848 3849 341 2374 
2794 3055 2631 3252 3248 3328 1734 3256 2792 
613 2450 2596 3327 2755 2970 2971 2968 2991 
3850 3851 3856 3857 3852 3853 3858 3859 3854 
3855 3860 3861 3288 2512 3347 2617 3405 3197 
3127 2982 2804 1426 2775 2084 2677 2712 2632 
2533 2661 3011 2709 3031 3862 3863 3868 3869 
3870 3865 3864 3871 3866 3872 3873 3867 2724 
2789 2758 2750 2756 3432 3317 2752 3404 2562 
2290 2734 2714 3001 2679 3325 3201 1969 3061 
3041 3874 3875 3880 3881 3876 3877 3882 3883 
3878 3879 3884 3885 636 3238 2711 2612 2760 
2657 2306 2720 2482 2647 2210 2964 2977 1971 
3211 2467 3231 3291 3331 3886 3887 3892 3893 
3888 3889 3894 3895 3890 3891 3896 3897 2598 
3265 1988 2663 2519 2627 2611 2672 1984 1978 
2675 2322 2974 2035 3321 2590 3381 2518 3411 
3898 3899 3904 3905 3900 3901 3906 3907 3902 
3903 3908 3909 3340 3020 3401 2052 3420 3361 
2634 3371 3220 3441 3141 3351 3241 3150 3461 
2980 3431 3471 3481 3910 3911 3916 3917 3912 
3913 3918 3919 3914 3915 3920 3921 3526 3480 
3450 3451 3527 3520 3528 3490 3460 3529 3500 
3380 3470 3530 3511 3440 3491 3501 3521 3531 
3922 3923 3928 3929 3924 3925 3930 3931 3926 
3927 3932 3933 3532 3533 3548 3549 3534 3535 
3550 3551 3536 3537 3552 3553 3538 3539 3554 
3555 3540 3541 3556 3557 3934 3935 3940 3941 
3936 3937 3942 3943 3938 3939 3944 3945 3564 
3565 3580 3581 3566 3567 3582 3583 3568 3569 
3584 3585 3570 3571 3586 3587 3572 3573 3588 
3589 3946 3947 3952 3953 3948 3949 3954 3955 
3950 3951 3956 3957 3560 3561 3590 3591 3558 
3559 3578 3579 3546 3547 3576 3577 3544 3545 
3574 3575 3542 3543 3562 3563 3958 3959 3964 
3965 3960 3961 3966 3967 3963 3969 3962 3968 

C_[0] 1 3969 double
0 0 0 0 0 0 0 0 0 
0 0 0 0 0 0 0 0 0 
0 0 0 0 0 0 0 0 0 
0 0 0 0 0 0 0 0 0 
0 0 0 0 0 0 0 0 0 
0 0 0 0 0 0 0 0 0 
0 0 0 0 0 0 0 0 0 
0 0 0 0 0 0 0 0 0 
0 0 0 0 0 0 0 0 0 
0 0 0 0 0 0 0 0 0 
0 0 0 0 0 0 0 0 0 
0 0 0 0 0 0 0 0 0 
0.00138734 0.00248404 0.00948843 0.0167875 0.0116934 0.00577899 0.0298372 0.0298267 0.00800755 
0.0246141 0.0132045 0.0441485 0.0502974 0.0123381 0.0193072 0.0514393 0.0769123 0.0322263 
0.0188651 0.0877384 0.0845264 0.0311115 0.104819 0 0 0 0 
0 0 0 0 0 0 0 0 0.0224542 
0.014125 0.00446048 0.00819439 0.0369579 0.0392244 0.0544626 0.0561727 0.0784918 0.0866159 
0.0852793 0.115371 0.0864206 0.124848 0.123056 0.13745 0.183597 0.140821 0.199635 
0.158475 0 0 0 0 0 0 0 0 