# vtk DataFile Version 3.0
Generated by LAMMPS
ASCII
DATASET POLYDATA
POINTS 3969 float
-0.607843 -0.607843 0 -0.588235 -0.607843 0 -0.607843 -0.588235 0 
-0.588235 -0.588235 0 -0.568627 -0.607843 0 -0.54902 -0.607843 0 
-0.568627 -0.588235 0 -0.54902 -0.588235 0 -0.529412 -0.607843 0 
-0.509804 -0.607843 0 -0.529412 -0.588235 0 -0.509804 -0.588235 0 
-0.490196 -0.607843 0 -0.470588 -0.607843 0 -0.490196 -0.588235 0 
-0.470588 -0.588235 0 -0.45098 -0.607843 0 -0.431373 -0.607843 0 
-0.45098 -0.588235 0 -0.431373 -0.588235 0 -0.411765 -0.607843 0 
-0.392157 -0.607843 0 -0.411765 -0.588235 0 -0.392157 -0.588235 0 
-0.372549 -0.607843 0 -0.352941 -0.607843 0 -0.372549 -0.588235 0 
-0.352941 -0.588235 0 -0.333333 -0.607843 0 -0.313726 -0.607843 0 
-0.333333 -0.588235 0 -0.313726 -0.588235 0 -0.607843 -0.568627 0 
-0.588235 -0.568627 0 -0.607843 -0.54902 0 -0.588235 -0.54902 0 
-0.568627 -0.568627 0 -0.54902 -0.568627 0 -0.568627 -0.54902 0 
-0.54902 -0.54902 0 -0.529412 -0.568627 0 -0.509804 -0.568627 0 
-0.529412 -0.54902 0 -0.509804 -0.54902 0 -0.490196 -0.568627 0 
-0.470588 -0.568627 0 -0.490196 -0.54902 0 -0.470588 -0.54902 0 
-0.45098 -0.568627 0 -0.431373 -0.568627 0 -0.45098 -0.54902 0 
-0.431373 -0.54902 0 -0.411765 -0.568627 0 -0.392157 -0.568627 0 
-0.411765 -0.54902 0 -0.392157 -0.54902 0 -0.372549 -0.568627 0 
-0.352941 -0.568627 0 -0.352941 -0.54902 0 -0.372549 -0.54902 0 
-0.333333 -0.568627 0 -0.313726 -0.568627 0 -0.313726 -0.54902 0 
-0.333333 -0.54902 0 -0.607843 -0.529412 0 -0.588235 -0.529412 0 
-0.607843 -0.509804 0 -0.588235 -0.509804 0 -0.568627 -0.529412 0 
-0.54902 -0.529412 0 -0.568627 -0.509804 0 -0.54902 -0.509804 0 
-0.529412 -0.529412 0 -0.509804 -0.529412 0 -0.529412 -0.509804 0 
-0.509804 -0.509804 0 -0.470588 -0.509804 0 -0.490196 -0.509804 0 
-0.470588 -0.529412 0 -0.490196 -0.529412 0 -0.431373 -0.509804 0 
-0.45098 -0.509804 0 -0.431373 -0.529412 0 -0.45098 -0.529412 0 
-0.392157 -0.509804 0 -0.411765 -0.509804 0 -0.392157 -0.529412 0 
-0.411765 -0.529412 0 -0.352941 -0.509804 0 -0.372549 -0.509804 0 
-0.352941 -0.529412 0 -0.372549 -0.529412 0 -0.313726 -0.509804 0 
-0.333333 -0.509804 0 -0.313726 -0.529412 0 -0.333333 -0.529412 0 
-0.607843 -0.490196 0 -0.588235 -0.490196 0 -0.607843 -0.470588 0 
-0.588235 -0.470588 0 -0.568627 -0.490196 0 -0.54902 -0.490196 0 
-0.568627 -0.470588 0 -0.54902 -0.470588 0 -0.529412 -0.490196 0 
-0.509804 -0.490196 0 -0.529412 -0.470588 0 -0.509804 -0.470588 0 
-0.5 -0.491844 0 -0.480749 -0.499812 0 -0.484959 -0.474261 0 
-0.465591 -0.471378 0 -0.46329 -0.484657 0 -0.455379 -0.497747 0 
-0.440369 -0.476652 0 -0.431691 -0.5 0 -0.427731 -0.481069 0 
-0.411548 -0.494448 0 -0.421649 -0.465208 0 -0.404631 -0.473062 0 
-0.390513 -0.49999 0 -0.388032 -0.47941 0 -0.367048 -0.49691 0 
-0.375296 -0.468421 0 -0.354467 -0.488666 0 -0.360619 -0.465547 0 
-0.335522 -0.5 0 -0.341914 -0.474746 0 -0.316222 -0.495318 0 
-0.328119 -0.469638 0 -0.312919 -0.471979 0 -0.607843 -0.45098 0 
-0.588235 -0.45098 0 -0.607843 -0.431373 0 -0.588235 -0.431373 0 
-0.568627 -0.45098 0 -0.54902 -0.45098 0 -0.568627 -0.431373 0 
-0.54902 -0.431373 0 -0.529412 -0.45098 0 -0.509804 -0.45098 0 
-0.529412 -0.431373 0 -0.509804 -0.431373 0 -0.474338 -0.453965 0 
-0.488606 -0.443945 0 -0.5 -0.463139 0 -0.5 -0.428559 0 
-0.465472 -0.435176 0 -0.451916 -0.459358 0 -0.448475 -0.437317 0 
-0.434283 -0.449746 0 -0.42092 -0.436346 0 -0.406635 -0.447194 0 
-0.396272 -0.42809 0 -0.391401 -0.455098 0 -0.380746 -0.439443 0 
-0.365517 -0.441672 0 -0.349036 -0.44912 0 -0.334698 -0.443872 0 
-0.32168 -0.4255 0 -0.317582 -0.44922 0 -0.607843 -0.411765 0 
-0.588235 -0.411765 0 -0.607843 -0.392157 0 -0.588235 -0.392157 0 
-0.568627 -0.411765 0 -0.54902 -0.411765 0 -0.568627 -0.392157 0 
-0.54902 -0.392157 0 -0.529412 -0.411765 0 -0.509804 -0.411765 0 
-0.529412 -0.392157 0 -0.509804 -0.392157 0 -0.476907 -0.423766 0 
-0.487798 -0.410126 0 -0.49754 -0.389897 0 -0.474246 -0.391812 0 
-0.464083 -0.403138 0 -0.435546 -0.421171 0 -0.450292 -0.412397 0 
-0.440619 -0.394979 0 -0.410299 -0.418322 0 -0.423116 -0.405181 0 
-0.410987 -0.388045 0 -0.39783 -0.398129 0 -0.355726 -0.422584 0 
-0.385149 -0.410354 0 -0.379738 -0.385301 0 -0.369992 -0.414494 0 
-0.363462 -0.392841 0 -0.339267 -0.421603 0 -0.348122 -0.398816 0 
-0.32952 -0.402536 0 -0.607843 -0.372549 0 -0.588235 -0.372549 0 
-0.607843 -0.352941 0 -0.588235 -0.352941 0 -0.568627 -0.372549 0 
-0.54902 -0.372549 0 -0.568627 -0.352941 0 -0.54902 -0.352941 0 
-0.529412 -0.372549 0 -0.509804 -0.372549 0 -0.529412 -0.352941 0 
-0.509804 -0.352941 0 -0.478372 -0.373377 0 -0.493821 -0.360778 0 
-0.474427 -0.351398 0 -0.461905 -0.37241 0 -0.447199 -0.376505 0 
-0.437745 -0.359165 0 -0.426996 -0.380954 0 -0.40646 -0.364859 0 
-0.420308 -0.357284 0 -0.391221 -0.372812 0 -0.38592 -0.34884 0 
-0.370879 -0.366049 0 -0.359362 -0.354224 0 -0.35222 -0.375341 0 
-0.333073 -0.382042 0 -0.337816 -0.361892 0 -0.317678 -0.364011 0 
-0.313387 -0.382453 0 -0.607843 -0.333333 0 -0.588235 -0.333333 0 
-0.607843 -0.313726 0 -0.588235 -0.313726 0 -0.568627 -0.333333 0 
-0.54902 -0.333333 0 -0.568627 -0.313726 0 -0.54902 -0.313726 0 
-0.529412 -0.333333 0 -0.509804 -0.333333 0 -0.529412 -0.313726 0 
-0.509804 -0.313726 0 -0.497372 -0.336346 0 -0.478632 -0.332185 0 
-0.479716 -0.310023 0 -0.499577 -0.307552 0 -0.465443 -0.318398 0 
-0.444915 -0.34289 0 -0.460782 -0.343414 0 -0.449042 -0.313054 0 
-0.433339 -0.316192 0 -0.429523 -0.334983 0 -0.401304 -0.342551 0 
-0.412447 -0.329226 0 -0.39741 -0.318916 0 -0.374389 -0.33769 0 
-0.382745 -0.31601 0 -0.365865 -0.311643 0 -0.358129 -0.329466 0 
-0.324894 -0.343917 0 -0.342884 -0.340886 0 -0.340967 -0.316981 0 
-0.325667 -0.322922 0 -0.607843 -0.294118 0 -0.588235 -0.294118 0 
-0.607843 -0.27451 0 -0.588235 -0.27451 0 -0.568627 -0.294118 0 
-0.54902 -0.294118 0 -0.568627 -0.27451 0 -0.54902 -0.27451 0 
-0.529412 -0.294118 0 -0.509804 -0.294118 0 -0.529412 -0.27451 0 
-0.509804 -0.27451 0 -0.492078 -0.271196 0 -0.474106 -0.269603 0 
-0.484713 -0.289376 0 -0.466911 -0.291203 0 -0.450898 -0.273198 0 
-0.433539 -0.27226 0 -0.429381 -0.29142 0 -0.449484 -0.294062 0 
-0.412552 -0.277521 0 -0.394143 -0.27692 0 -0.402141 -0.296606 0 
-0.417425 -0.304667 0 -0.36821 -0.284974 0 -0.382293 -0.292779 0 
-0.352512 -0.299205 0 -0.346003 -0.279485 0 -0.32152 -0.282354 0 
-0.332815 -0.296293 0 -0.314329 -0.305103 0 -0.607843 -0.254902 0 
-0.588235 -0.254902 0 -0.607843 -0.235294 0 -0.588235 -0.235294 0 
-0.568627 -0.254902 0 -0.54902 -0.254902 0 -0.568627 -0.235294 0 
-0.54902 -0.235294 0 -0.529412 -0.254902 0 -0.509804 -0.254902 0 
-0.529412 -0.235294 0 -0.509804 -0.235294 0 -0.468965 -0.240791 0 
-0.478871 -0.233907 0 -0.499024 -0.250198 0 -0.463212 -0.258408 0 
-0.440085 -0.250864 0 -0.448923 -0.235511 0 -0.426294 -0.239201 0 
-0.418579 -0.257637 0 -0.40141 -0.255443 0 -0.400433 -0.231723 0 
-0.376398 -0.265265 0 -0.358741 -0.264096 0 -0.385941 -0.249702 0 
-0.363279 -0.242672 0 -0.376862 -0.230193 0 -0.335412 -0.26406 0 
-0.345121 -0.246875 0 -0.323536 -0.241618 0 -0.316952 -0.261522 0 
-0.607843 -0.215686 0 -0.588235 -0.215686 0 -0.607843 -0.196078 0 
-0.588235 -0.196078 0 -0.568627 -0.215686 0 -0.54902 -0.215686 0 
-0.568627 -0.196078 0 -0.54902 -0.196078 0 -0.529412 -0.215686 0 
-0.509804 -0.215686 0 -0.529412 -0.196078 0 -0.509804 -0.196078 0 
-0.49228 -0.223442 0 -0.471061 -0.208043 0 -0.4766 -0.194236 0 
-0.5 -0.206585 0 -0.439595 -0.219859 0 -0.457723 -0.213373 0 
-0.426009 -0.20721 0 -0.444627 -0.195813 0 -0.413723 -0.225043 0 
-0.389334 -0.215843 0 -0.409584 -0.202083 0 -0.393106 -0.196404 0 
-0.354302 -0.223757 0 -0.368827 -0.210477 0 -0.375214 -0.191367 0 
-0.352051 -0.200308 0 -0.336308 -0.227703 0 -0.335092 -0.206833 0 
-0.318033 -0.214557 0 -0.607843 -0.176471 0 -0.588235 -0.176471 0 
-0.607843 -0.156863 0 -0.588235 -0.156863 0 -0.568627 -0.176471 0 
-0.54902 -0.176471 0 -0.568627 -0.156863 0 -0.54902 -0.156863 0 
-0.529412 -0.176471 0 -0.509804 -0.176471 0 -0.529412 -0.156863 0 
-0.509804 -0.156863 0 -0.477584 -0.17938 0 -0.469546 -0.160416 0 
-0.494421 -0.171932 0 -0.454419 -0.184183 0 -0.426561 -0.185286 0 
-0.432744 -0.167769 0 -0.452968 -0.166057 0 -0.410678 -0.177872 0 
-0.393064 -0.17438 0 -0.416406 -0.1565 0 -0.398455 -0.154569 0 
-0.357792 -0.181143 0 -0.37558 -0.170104 0 -0.363407 -0.15688 0 
-0.335013 -0.186728 0 -0.315142 -0.186275 0 -0.346587 -0.165518 0 
-0.326351 -0.170315 0 -0.607843 -0.137255 0 -0.588235 -0.137255 0 
-0.607843 -0.117647 0 -0.588235 -0.117647 0 -0.568627 -0.137255 0 
-0.54902 -0.137255 0 -0.568627 -0.117647 0 -0.54902 -0.117647 0 
-0.529412 -0.137255 0 -0.509804 -0.137255 0 -0.529412 -0.117647 0 
-0.509804 -0.117647 0 -0.485739 -0.151851 0 -0.489834 -0.137957 0 
-0.464043 -0.131459 0 -0.465995 -0.11727 0 -0.497323 -0.11982 0 
-0.435975 -0.147958 0 -0.456839 -0.144108 0 -0.438744 -0.125284 0 
-0.423408 -0.135453 0 -0.400478 -0.133526 0 -0.412647 -0.118026 0 
-0.387728 -0.120926 0 -0.383324 -0.145515 0 -0.369856 -0.133682 0 
-0.351409 -0.138797 0 -0.358008 -0.117267 0 -0.337683 -0.14705 0 
-0.319989 -0.149968 0 -0.340158 -0.116348 0 -0.32576 -0.12507 0 
-0.30985 -0.132315 0 -0.607843 -0.0980392 0 -0.588235 -0.0980392 0 
-0.607843 -0.0784314 0 -0.588235 -0.0784314 0 -0.568627 -0.0980392 0 
-0.54902 -0.0980392 0 -0.568627 -0.0784314 0 -0.54902 -0.0784314 0 
-0.529412 -0.0980392 0 -0.509804 -0.0980392 0 -0.529412 -0.0784314 0 
-0.509804 -0.0784314 0 -0.482958 -0.109793 0 -0.466179 -0.0958388 0 
-0.480073 -0.0801848 0 -0.492898 -0.0916525 0 -0.439165 -0.110796 0 
-0.448745 -0.0961366 0 -0.427112 -0.0861561 0 -0.460027 -0.0762029 0 
-0.439096 -0.075636 0 -0.418962 -0.10152 0 -0.396795 -0.103853 0 
-0.403531 -0.084945 0 -0.372151 -0.107239 0 -0.381316 -0.0905168 0 
-0.350313 -0.0941418 0 -0.364697 -0.0844889 0 -0.328309 -0.101405 0 
-0.339423 -0.0813422 0 -0.31715 -0.0884904 0 -0.607843 -0.0588235 0 
-0.588235 -0.0588235 0 -0.607843 -0.0392157 0 -0.588235 -0.0392157 0 
[...]
POINT_DATA 3969
FIELD FieldData 5
id 1 3969 int
161 162 167 168 163 164 169 170 165 
166 171 172 107 108 123 124 109 110 
125 126 111 112 127 128 113 114 129 
130 115 116 131 132 173 174 179 180 
175 176 181 182 177 178 183 184 139 
140 155 156 141 142 157 158 143 144 
159 160 145 146 153 154 147 148 151 
152 185 186 191 192 187 188 193 194 
189 190 195 196 119 120 149 150 117 
118 137 138 105 106 135 136 103 104 
133 134 101 102 121 122 197 198 203 
204 199 200 205 206 201 202 207 208 
1013 1015 1499 2242 1019 1021 2628 1023 2645 
2470 1732 771 1411 54 2483 2799 263 621 
2546 642 2728 3229 1818 209 210 215 216 
211 212 217 218 213 214 219 220 2788 
1016 1009 9 1779 1759 280 1832 3387 1808 
1029 65 334 27 779 83 382 499 221 
222 227 228 223 224 229 230 225 226 
231 232 623 622 1803 1780 531 1504 1774 
770 519 1790 379 640 584 574 1277 1044 
1069 1608 1674 1596 233 234 239 240 235 
236 241 242 237 238 243 244 292 1798 
1775 1816 1793 759 1307 1580 1126 1682 1298 
1381 1093 1148 1296 1125 1520 89 245 246 
251 252 247 248 253 254 249 250 255 
256 1529 610 571 2487 1665 1809 62 1683 
1602 85 1354 1691 1094 1581 1259 325 345 
283 1573 1632 1102 407 408 413 414 409 
410 415 416 411 412 417 418 1776 1046 
1794 632 791 1076 1486 73 1339 1310 1535 
562 1138 1124 1117 1357 1446 1538 1554 419 
420 425 426 421 422 427 428 423 424 
429 430 1646 2790 1592 13 1276 586 1043 
88 1263 1265 1401 1492 1294 1386 1387 1105 
1416 1569 1286 431 432 437 438 433 434 
439 440 435 436 441 442 614 390 369 
1017 344 354 503 19 1519 1131 1252 1643 
1328 1456 1524 1317 1341 1348 1302 443 444 
449 450 445 446 451 452 447 448 453 
454 2531 2769 2753 33 1324 1101 792 1151 
1290 1109 1153 1431 1275 1372 1331 1330 1343 
1347 455 456 461 462 457 458 463 464 
459 460 465 466 96 655 260 2748 1022 
1657 320 1395 1129 1266 1088 1104 1139 1371 
1400 1344 1362 1329 1358 1346 1345 467 468 
473 474 469 470 475 476 471 472 477 
478 86 564 1778 1058 570 540 1576 611 
1099 556 1267 313 1359 1305 1455 1482 1555 
1373 1572 479 480 485 486 481 482 487 
488 483 484 489 490 2738 782 1020 43 
1293 1745 333 1597 1452 1110 1453 1121 1496 
1325 355 1541 1423 1321 491 492 493 494 
495 496 654 1012 1725 7 1614 36 1051 
1730 554 1295 1588 1501 1118 1599 1135 1147 
381 1119 592 1133 506 657 658 663 664 
659 660 665 666 661 662 667 668 644 
1018 400 590 781 1610 612 1815 330 1640 
1084 542 1647 1261 1090 1059 1092 1645 669 
670 675 676 671 672 677 678 673 674 
679 680 1763 2471 1143 312 1782 1081 270 
520 301 2806 1560 1091 1637 1593 1323 1396 
314 1556 1551 681 682 687 688 683 684 
689 690 685 686 691 692 2674 1618 34 
2034 2706 1598 560 63 1651 1830 1791 1633 
1656 523 1140 1532 534 1586 693 694 699 
700 695 696 701 702 697 698 703 704 
2725 1770 1487 1622 550 2658 2721 2770 1438 
396 1611 1368 1338 1483 1543 555 1688 1689 
1108 1521 1087 705 706 711 712 707 708 
713 714 709 710 715 716 1814 1784 501 
1726 1761 1728 1547 1813 545 2802 510 1639 
1155 55 45 1264 1063 1107 717 718 723 
724 719 720 725 726 721 722 727 728 
1577 646 2 1 2517 392 1533 53 1986 
331 1661 1797 380 1735 1672 1792 530 1049 
275 1795 282 729 730 735 736 731 732 
737 738 733 734 739 740 1652 1729 21 
1738 302 2678 2018 1787 1590 1484 1764 66 
1743 633 97 1760 1041 1062 741 742 747 
748 743 744 749 750 745 746 751 752 
1014 4 31 61 1786 5 6 11 1756 
1742 1769 1680 772 581 1054 261 1762 1749 
521 1800 913 914 919 920 915 916 921 
922 917 918 923 924 257 1677 91 2610 
41 1620 1664 1741 1531 512 1518 1767 1783 
532 1687 1080 391 361 1744 48 925 926 
931 932 927 928 933 934 929 930 935 
936 1693 357 596 507 2580 1383 71 1650 
1723 1098 2564 594 1675 1503 8 1746 1038 
2547 553 937 938 943 944 939 940 945 
946 941 942 947 948 2066 547 1026 597 
397 1128 317 20 1558 1607 1559 1033 1397 
1673 22 514 1514 1563 1621 1578 949 950 
955 956 951 952 957 958 953 954 959 
960 647 577 753 783 793 557 527 72 
348 617 327 627 537 297 587 598 1028 
10 377 1112 961 962 967 968 963 964 
969 970 965 966 971 972 774 803 833 
558 843 813 814 844 773 784 845 754 
823 804 846 847 764 834 848 973 974 
979 980 975 976 981 982 977 978 983 
984 859 860 875 876 861 862 877 878 
863 864 879 880 865 866 881 882 867 
868 883 884 985 986 991 992 987 988 
993 994 989 990 995 996 891 892 907 
908 893 894 909 910 895 896 911 912 
897 898 905 906 899 900 903 904 997 
998 1003 1004 999 1000 1005 1006 1001 1002 
1007 1008 871 872 901 902 869 870 889 
890 857 858 887 888 855 856 885 886 
873 854 853 874 1159 1160 1174 1175 1161 
1162 1176 1177 1163 1164 1178 1179 1165 1166 
1180 1181 1167 1168 1182 1183 1169 1170 1184 
1185 1171 1172 1186 1187 1173 1188 1189 1190 
1204 1205 1191 1192 1206 1207 1193 1194 1208 
1209 1195 1196 1210 1211 1197 1198 1212 1213 
1199 1200 1214 1215 1201 1202 1216 1217 1203 
1218 1219 1220 1234 1235 1221 1222 1236 1237 
1223 1224 1238 1239 1225 1226 1240 1241 1227 
1228 1242 1243 1229 1230 1244 1245 1231 1232 
1246 1247 1233 1248 370 652 1788 1158 3374 
1064 3462 1748 582 84 780 1826 2781 559 
1308 1992 2818 801 2795 1810 2808 1833 82 
339 2715 2821 600 1096 1777 3384 768 1658 
271 1737 1591 375 758 1073 1067 1642 342 
812 651 1306 1827 767 1513 14 26 1127 
403 516 1024 589 1824 790 802 1717 2796 
2534 566 1425 1095 522 1292 366 50 552 
1516 1546 1507 336 1260 1628 1045 1146 1156 
1550 1410 1627 266 1071 99 1648 49 513 
265 757 303 799 1100 1669 259 1567 1089 
1477 406 1445 1409 343 1511 1540 1315 1144 
1625 395 1086 376 1061 1582 1366 573 67 
335 1502 1353 524 1736 1663 290 2836 268 
349 356 285 1342 1568 1122 1415 1327 1301 
1603 1316 1356 1424 525 1522 1313 1571 1552 
1594 1380 262 1718 1280 1116 509 70 620 
2274 498 789 289 2819 399 1314 1370 1349 
1285 1384 1287 1271 1270 1601 1350 1299 1458 
1367 1585 1429 1355 1337 1553 1570 1103 1322 
1309 264 533 329 402 1050 1485 28 3309 
1785 1318 1332 1333 1407 1406 1393 1334 1379 
1421 1451 1449 1405 1312 1490 1481 1340 1085 
1542 276 405 363 535 78 1068 39 1060 
593 822 3209 1106 1561 1364 1392 1378 1377 
1363 1376 1420 1391 1404 1403 1390 1436 1272 
1422 1303 1526 1527 1587 1251 502 583 561 
75 606 1804 1641 798 585 12 3303 778 
788 1375 1360 1432 1389 1447 1361 1402 1448 
1388 1418 1494 1408 1434 1300 1268 1505 1256 
383 1606 1249 305 504 1536 79 1056 549 
528 1626 579 309 64 1493 1417 1509 1523 
1508 1480 1433 1443 1435 1442 1288 1414 1557 
1679 1352 316 1615 1721 1055 624 269 1589 
1805 777 17 800 307 319 1539 1441 1478 
1137 1374 1510 1479 1419 1495 1450 1311 1474 
1255 1604 1154 1326 77 1690 656 569 1823 
518 29 1459 1460 3454 1579 1461 1320 1120 
1437 1525 1336 1394 1274 1512 1273 1440 1335 
1319 1497 386 1624 1584 1530 1053 626 1036 
1462 1466 1463 1464 1467 1468 1465 1469 1257 
1134 1281 1304 1136 1289 1534 1150 1254 1283 
1457 326 1279 1130 1040 401 1074 1822 1470 
810 1472 1471 1473 1365 1149 1351 1152 1537 
1258 1291 1282 1269 1284 1075 286 306 1132 
1644 1629 296 299 602 353 1636 1694 1695 
1699 809 2840 756 1696 1697 1700 1701 1698 
1702 1253 1262 284 1489 1612 1491 1385 1476 
1660 1635 1113 1382 1145 544 59 1427 615 
1595 1703 1707 811 24 1843 1704 1705 1708 
1709 1706 1710 304 1616 1565 1574 1506 1430 
1297 1475 60 1609 394 1564 315 56 1048 
1751 1617 1684 619 373 1082 1711 1712 1820 
1862 310 1828 819 1713 2830 1070 1114 575 
1369 90 1428 505 546 1631 384 374 37 
565 404 46 340 1444 322 625 1077 1072 
295 2423 298 599 609 81 497 2852 1841 
832 1141 1123 1399 515 1600 1115 601 1662 
311 365 1613 364 1250 1562 68 603 595 
1766 2595 352 1655 372 1011 1638 1025 1649 
2831 630 808 1848 588 3502 653 346 30 
2805 500 760 1042 350 1039 1157 1634 526 
385 511 1528 635 272 47 1747 2578 294 
1733 100 1653 92 1083 23 1037 1821 797 
2839 1398 44 76 1566 1605 1079 1678 591 
576 1575 1066 1111 634 57 1583 293 1454 
1654 1623 536 324 267 300 1097 1844 538 
821 796 3493 321 1796 1549 38 40 1142 
643 87 1078 1057 360 1685 1781 371 1544 
332 1548 604 563 1722 1724 2338 1052 1630 
42 32 308 578 650 830 2843 1819 58 
1801 551 98 1715 273 274 541 616 1716 
1771 69 1412 1754 2629 2503 1670 362 543 
15 1676 1666 1030 18 378 288 548 639 
787 2835 820 1765 393 1772 1739 1731 80 
1740 1755 1659 1686 323 1671 1545 3 1032 
1692 1010 287 328 629 278 755 618 816 
806 766 828 1840 1838 2841 1065 1027 1517 
1488 1035 605 1500 1720 1515 1031 1278 1667 
1681 387 1034 52 1047 367 277 567 318 
568 649 608 815 776 817 807 818 1845 
1852 2842 25 51 638 517 398 16 508 
337 607 347 368 648 775 338 358 637 
628 805 765 786 839 840 841 831 842 
1836 1835 1842 1839 2850 763 794 850 849 
795 824 851 835 852 785 1849 825 1850 
836 1851 826 837 1853 827 1854 838 1855 
829 1857 1856 1834 1858 1859 1837 1860 1861 
1863 1864 1865 1879 1880 1866 1867 1881 1882 
1868 1869 1883 1884 1870 1871 1885 1886 1872 
1873 1887 1888 1874 1875 1889 1890 1876 1877 
1891 1892 1878 1893 1894 1895 1909 1910 1896 
1897 1911 1912 1898 1899 1913 1914 1900 1901 
1915 1916 1902 1903 1917 1918 1904 1905 1919 
1920 1906 1907 1921 1922 1908 1923 1924 1925 
1939 1940 1926 1927 1941 1942 1928 1929 1943 
1944 1930 1931 1945 1946 1932 1933 1947 1948 
1934 1935 1949 1950 1951 1936 1937 1952 1953 
1938 2114 2115 2130 2131 2116 2117 2132 2133 
2118 2119 2134 2135 2120 2121 2136 2137 2122 
2123 2138 2139 2124 2125 2140 2141 2126 2127 
2142 2143 2128 2129 2144 2145 2146 2147 2162 
2163 2148 2149 2164 2165 2150 2151 2166 2167 
2152 2153 2168 2169 2154 2155 2170 2171 2156 
2157 2172 2173 2158 2159 2174 2175 2160 2161 
2176 2177 2178 2179 2194 2195 2180 2181 2196 
2197 2182 2183 2198 2199 2184 2185 2200 2201 
2186 2187 2202 2203 2188 2189 2204 2205 2190 
2191 2206 2207 2192 2193 2208 2209 1954 74 
631 281 1799 2984 3348 2814 2651 3137 1829 
2743 3482 641 3406 3278 389 3388 2779 1807 
291 3433 3367 2053 769 3188 2765 2791 3299 
94 645 351 279 2998 1439 359 2051 3269 
3369 3334 1980 2544 2815 1806 2592 2650 2455 
3378 2816 3130 2801 3255 3279 3010 2012 3474 
1973 3473 2828 2988 3253 3472 258 529 1619 
1789 35 2837 3407 95 3475 2418 1847 2502 
2371 3447 2635 2565 3316 2985 2729 3125 2036 
2259 3133 3284 3165 2757 2010 3004 3226 3145 
2039 2044 3415 3048 2825 93 3359 2834 3050 
2826 3242 3144 2038 2014 3326 2017 2016 2323 
2028 3187 3213 2599 2506 2262 3134 2496 3282 
2357 2112 2497 2321 2574 3049 2975 3174 3003 
1987 3054 2829 3345 2419 3214 2528 3015 2239 
2555 3183 2301 2047 2075 2352 2283 3244 2308 
2401 2557 2235 3292 2521 2403 3204 2342 2073 
3132 2100 2623 3154 2669 3398 2972 2625 2763 
2563 3267 3135 2510 3045 2288 2368 2284 2088 
2266 2285 2234 2250 2393 2336 2282 2280 2218 
2302 2300 2494 2421 2067 3492 1989 3483 3246 
3034 3216 3014 3403 2559 2275 2591 2341 3323 
2542 2351 2324 2254 2585 2320 2236 2458 2231 
2248 2249 2310 2394 2314 2295 2265 2313 3158 
3389 3159 2643 3060 2772 2020 3352 2359 2005 
2384 2420 2319 2479 2229 2252 2267 2410 2511 
2279 2233 2427 2426 2264 2395 2380 2281 2311 
2343 3427 2986 3160 1846 3227 2271 3456 2718 
2113 1965 2407 2060 2416 2292 2526 3262 2219 
2353 2566 2303 2379 2411 2346 2412 2362 2247 
2378 2377 2347 2364 2360 2327 2330 388 1994 
3465 2618 2226 3169 2099 2983 3289 3276 2602 
2029 3365 2062 2102 2577 2214 2396 2255 2326 
2397 2428 2413 2348 2349 2363 2361 2315 2344 
2331 2316 3437 3030 2430 2431 2432 1757 2433 
2434 2973 3349 2670 2824 2535 3205 2025 3233 
2007 3126 2069 2335 2294 2107 2381 2460 2461 
2365 2382 2398 2478 2462 2388 2493 2435 2436 
2440 2441 2437 2438 2442 2443 2439 2444 3476 
2616 2762 2211 3221 2408 2369 2537 2459 2286 
2489 2422 2429 2389 2476 2509 2491 2473 2523 
2445 2446 2447 2448 2449 3139 2817 3206 3016 
3393 2571 2061 3236 2055 2004 2404 2253 2586 
2376 2477 2492 2278 2402 2409 2475 2524 2392 
2680 2681 2686 2687 2682 2683 2688 2689 2684 
2685 2690 1976 3466 2659 3297 2649 3176 2505 
2463 2087 3235 2251 2589 2237 2263 2090 2104 
2507 2217 2110 2340 2260 2691 2692 2696 2697 
2693 2694 2698 2699 3484 2695 2700 3140 3189 
3438 2673 3337 3375 2609 2582 3202 3153 3002 
3222 2105 2268 2385 2304 2287 3232 2238 2216 
2305 2701 2702 2705 3485 2833 2832 1825 2703 
2704 3178 2339 2019 3053 3175 1997 2244 2071 
2575 2545 3274 2245 2059 2049 2064 2220 2495 
2606 2370 2232 2481 2538 2827 3457 3495 3408 
3170 3280 3199 2987 2978 2002 2485 2486 2033 
2759 3287 3275 3207 3193 3423 2097 3332 2080 
2289 2570 2048 2072 2225 3324 2276 3314 2573 
2561 2056 3155 3496 3179 3329 3009 1981 1974 
3304 2746 3335 2498 2737 3217 3024 2766 3037 
2256 3052 3006 2023 2556 2230 2065 2085 3184 
3263 2083 2042 2652 2513 3310 3477 3190 3379 
1990 2666 2549 2468 1977 3286 3382 2466 2719 
2011 2013 3422 2603 3019 2993 3313 3172 2608 
3224 3293 2257 3152 2079 2095 3342 3273 3194 
3219 1985 3494 3180 3428 2619 2488 2484 2452 
3336 3196 3376 3395 3366 2747 572 3394 2820 
3026 3177 3396 2543 2604 2536 3046 1993 2078 
2798 341 3167 2024 3281 3399 2999 2990 2655 
3311 2642 2667 2630 2749 2451 3266 2751 3356 
3166 2787 1964 1995 2773 2764 3355 2037 1719 
3228 2620 3288 1996 2862 3419 3486 3300 3448 
1982 2356 3250 2981 2639 2354 3181 2516 2713 
2515 2730 3354 3306 3372 2778 2716 3412 2774 
2050 3307 2771 3247 2022 2745 3136 3413 2722 
2758 2724 2845 2847 3506 3400 3370 3230 3409 
3261 3000 1975 3301 2962 2653 3021 3344 3302 
2597 3392 2648 2641 2594 3373 2707 3402 2514 
2499 2735 1750 2676 2453 3346 2846 3504 3467 
3487 3320 3390 3449 3360 3458 3168 2989 3330 
3161 3200 3171 3210 2969 3191 1413 2726 2003 
2390 3131 3285 3051 1972 2624 2615 2372 2646 
1966 2598 2856 2844 2849 3497 3513 3498 3512 
3478 3505 3439 3468 3499 3489 3429 3410 3290 
3350 3270 3040 3421 3251 3430 3151 3240 3341 
3391 3271 2851 2838 2853 2848 2854 2855 3503 
2857 3514 2858 2859 3515 3516 2860 3507 2861 
3517 2863 3488 3508 2864 3518 2865 3509 3469 
3522 3523 3519 3459 3510 3524 3525 3479 2866 
2867 2882 2883 2868 2869 2884 2885 2870 2871 
2886 2887 2872 2873 2888 2889 2874 2875 2890 
2891 2876 2877 2892 2893 2878 2879 2894 2895 
2880 2881 2896 2897 2898 2899 2914 2915 2900 
2901 2916 2917 2902 2903 2918 2919 2904 2905 
2920 2921 2906 2907 2922 2923 2908 2909 2924 
2925 2910 2911 2926 2927 2912 2913 2928 2929 
2930 2931 2946 2947 2932 2933 2948 2949 2934 
2935 2950 2951 2936 2937 2952 2953 2938 2939 
2954 2955 2940 2941 2956 2957 2959 2958 2943 
2942 2945 2960 2961 2944 3062 3063 3078 3079 
3064 3065 3080 3081 3066 3067 3082 3083 3068 
3069 3084 3085 3070 3071 3086 3087 3592 3593 
3598 3599 3594 3595 3600 3601 3596 3597 3602 
3603 3094 3095 3110 3111 3096 3097 3112 3113 
3098 3099 3114 3115 3100 3101 3116 3117 3102 
3103 3118 3119 3604 3605 3610 3611 3606 3607 
3612 3613 3608 3609 3614 3615 3090 3091 3120 
3121 3088 3089 3108 3109 3076 3077 3106 3107 
3074 3075 3104 3105 3072 3073 3092 3093 3616 
3617 3622 3623 3618 3619 3624 3625 3620 3621 
3626 3627 1752 1758 2797 2976 3128 2793 1831 
1768 2731 3425 2807 1727 2742 2785 2727 1955 
1956 1668 2454 1961 1962 1967 3628 3629 3634 
3635 3630 3631 3636 3637 3632 3633 3638 3639 
2809 2605 580 2373 2637 3464 2812 3259 2307 
3272 2810 2800 3318 539 3056 2783 2662 2644 
2710 1968 3640 3641 3646 3647 3642 3643 3648 
3649 3644 3645 3650 3651 3057 3312 3035 3012 
2626 2607 3343 1812 2823 3446 2009 2068 2995 
3032 3368 1959 3377 1957 1958 3652 3653 3658 
3659 3654 3655 3660 3661 3656 3657 3662 3663 
2108 3212 2424 2101 3005 3185 3043 2030 3157 
3339 2046 3455 2560 3358 3417 3397 2994 2782 
2548 3664 3665 3670 3671 3666 3667 3672 3673 
3668 3669 3674 3675 2222 2425 2096 2272 2337 
3195 2656 3042 2057 3245 3362 3333 3129 3215 
1979 3319 2082 3249 2963 3676 3677 3682 3683 
3678 3679 3685 3684 3687 3680 3686 3681 2405 
2367 2456 2103 2293 2490 2221 2089 3364 3044 
2086 3059 3418 2665 2614 3260 3442 3338 761 
2098 3688 3689 3694 3695 3690 3691 3696 3697 
3692 3693 3698 3699 2400 2297 2298 2375 2334 
2063 2277 2106 2572 2992 2472 3149 2613 2638 
2811 3424 1498 3700 3701 3706 3707 3702 3703 
3708 3709 3704 3705 3710 3711 2318 2328 2299 
2296 2358 2350 2529 2241 2223 3013 2224 2228 
3436 2979 3353 2043 3383 3028 3198 3416 2767 
3712 3713 3718 3719 3714 3715 3720 3721 3716 
3717 3722 3723 2366 2312 2317 2329 2474 2399 
2554 2387 2015 2040 2480 2212 2593 2664 2054 
1811 1817 3443 2654 3724 3725 3730 3731 3726 
3727 3732 3733 3728 3729 3734 3735 2415 2345 
2333 2332 2058 2540 2094 2522 2553 2464 2270 
3025 3203 3264 2081 1983 2243 2822 1714 3414 
3736 3737 3742 3743 3738 3739 3744 3745 3740 
3741 3746 3747 2541 2525 2383 2325 3283 2240 
3182 3296 2215 2406 3163 2045 2391 3223 3138 
2001 2736 3748 3749 3754 3755 3750 3751 3756 
3757 3752 3753 3758 3759 2539 2414 2508 2111 
2246 2273 2091 2077 3192 2600 3237 2309 3164 
2636 2803 2567 2741 2786 2732 2813 1960 3760 
3761 3766 3767 3762 3763 3768 3769 3764 3765 
3770 3771 2457 2092 2109 2269 2076 2093 2520 
2261 2568 3124 3315 2997 3173 3463 3426 1970 
3452 3218 2006 2768 3772 3773 3774 3775 3776 
3777 3305 3023 2074 2660 2500 3186 2588 2291 
2668 3294 3162 3258 3047 2622 3295 2258 3435 
2776 3277 3778 3779 3784 3785 3780 3781 3786 
3787 3782 3783 3788 3789 2386 2581 3033 2070 
2671 2027 2551 3363 2501 3142 3254 3022 2031 
3146 3445 1773 3444 1999 2744 1753 3790 3791 
3796 3797 3792 3793 3798 3799 3794 3795 3800 
3801 2026 2032 2504 2558 2041 2213 2552 2583 
3147 3122 3148 3017 3156 1802 3385 3434 2754 
3802 3803 3808 3809 3804 3805 3810 3811 3806 
3807 3812 3813 2417 2465 3123 2587 2569 2527 
2640 2579 2996 2532 2000 1998 3058 3243 762 
3298 2780 3036 2708 2530 3814 3815 3820 3821 
3816 3817 3822 3823 3818 3819 3824 3825 2584 
3322 2021 2633 3027 3039 2227 2008 3029 2550 
3234 2355 3038 3208 2761 2777 2717 2965 2740 
2966 3826 3827 3832 3833 3828 3829 3834 3835 
3830 3831 3836 3837 3225 3018 2784 3143 1991 
2601 3308 3007 3386 3453 3268 3357 3008 1963 
2469 2733 2723 2621 2739 2967 3838 3839 3844 
3845 3840 3841 3846 3847 3842 3843 3848 3849 
2576 2374 2794 3055 3239 2631 3252 3328 3256 
3257 1734 2792 613 2450 2596 3327 2755 2970 
2971 2991 3850 3851 3856 3857 3852 3853 3858 
3859 3854 3855 3860 3861 2512 3347 3197 2617 
3248 3405 3127 2804 2982 1426 2775 2677 2712 
2632 2533 2968 3011 2709 3031 3862 3863 3868 
3869 3871 3870 3865 3864 3866 3872 3867 3873 
2789 2750 3432 3317 2752 3404 2290 2734 2714 
2084 3001 2679 3325 2661 1969 3201 3061 3041 
3874 3875 3880 3881 3876 3877 3882 3883 3878 
3879 3884 3885 636 3238 2711 2612 2756 2760 
2306 2720 2562 2482 2647 2964 2977 1971 3211 
2467 3231 3291 3331 3886 3887 3892 3893 3888 
3889 3894 3895 3890 3891 3896 3897 3265 1988 
2663 2657 2519 2627 2611 1978 2672 2210 1984 
2675 2322 2974 2035 3321 2590 3381 2518 3411 
3898 3899 3904 3905 3900 3901 3906 3907 3902 
3903 3908 3909 3340 3020 3401 2052 3420 3361 
2634 3220 3371 3441 3141 3351 3241 3150 3461 
2980 3431 3471 3481 3910 3911 3916 3917 3912 
3913 3918 3919 3914 3915 3920 3921 3526 3480 
3450 3451 3527 3520 3528 3490 3460 3529 3500 
3380 3470 3530 3511 3440 3491 3501 3521 3531 
3922 3923 3928 3929 3924 3925 3930 3931 3926 
3927 3932 3933 3532 3533 3548 3549 3534 3535 
3550 3551 3536 3537 3552 3553 3538 3539 3554 
3555 3540 3541 3556 3557 3934 3935 3940 3941 
3936 3937 3942 3943 3938 3939 3944 3945 3564 
3565 3580 3581 3566 3567 3582 3583 3568 3569 
3584 3585 3570 3571 3586 3587 3572 3573 3588 
3589 3946 3947 3952 3953 3948 3949 3954 3955 
3950 3951 3956 3957 3560 3561 3590 3591 3558 
3559 3578 3579 3546 3547 3576 3577 3544 3545 
3574 3575 3542 3543 3562 3563 3958 3959 3964 
3965 3960 3961 3966 3967 3969 3962 3968 3963 

C_[0] 1 3969 double
0 0 0 0 0 0 0 0 0 
0 0 0 0 0 0 0 0 0 
0 0 0 0 0 0 0 0 0 
0 0 0 0 0 0 0 0 0 
0 0 0 0 0 0 0 0 0 
0 0 0 0 0 0 0 0 0 
0 0 0 0 0 0 0 0 0 
0 0 0 0 0 0 0 0 0 
0 0 0 0 0 0 0 0 0 
0 0 0 0 0 0 0 0 0 
0 0 0 0 0 0 0 0 0 
0 0 0 0 0 0 0 0 0 
0.00137795 0.00253185 0.00913801 0.0178322 0.0120104 0.00632692 0.0260934 0.00818068 0.0263134 
0.0146716 0.0456008 0.0478898 0.0116127 0.0473665 0.0181666 0.0719984 0.0359101 0.085435 
0.0162521 0.0761322 0.0268446 0.0963769 0.0983454 0 0 0 0 
0 0 0 0 0 0 0 0 0.021568 
0.01458 0.00437025 0.00827191 0.037792 0.0324683 0.0533569 0.05451 0.0809738 0.082652 
0.117067 0.083472 0.116207 0.127934 0.128957 0.150511 0.199183 0.152174 0 
0 0 0 0 0 0 0 0 0 