# vtk DataFile Version 3.0
Generated by LAMMPS
ASCII
DATASET POLYDATA
POINTS 3969 float
-0.607843 -0.607843 0 -0.588235 -0.607843 0 -0.607843 -0.588235 0 
-0.588235 -0.588235 0 -0.568627 -0.607843 0 -0.54902 -0.607843 0 
-0.568627 -0.588235 0 -0.54902 -0.588235 0 -0.529412 -0.607843 0 
-0.509804 -0.607843 0 -0.529412 -0.588235 0 -0.509804 -0.588235 0 
-0.490196 -0.607843 0 -0.470588 -0.607843 0 -0.490196 -0.588235 0 
-0.470588 -0.588235 0 -0.45098 -0.607843 0 -0.431373 -0.607843 0 
-0.45098 -0.588235 0 -0.431373 -0.588235 0 -0.411765 -0.607843 0 
-0.392157 -0.607843 0 -0.411765 -0.588235 0 -0.392157 -0.588235 0 
-0.372549 -0.607843 0 -0.352941 -0.607843 0 -0.372549 -0.588235 0 
-0.352941 -0.588235 0 -0.333333 -0.607843 0 -0.313726 -0.607843 0 
-0.333333 -0.588235 0 -0.313726 -0.588235 0 -0.607843 -0.568627 0 
-0.588235 -0.568627 0 -0.607843 -0.54902 0 -0.588235 -0.54902 0 
-0.568627 -0.568627 0 -0.54902 -0.568627 0 -0.568627 -0.54902 0 
-0.54902 -0.54902 0 -0.529412 -0.568627 0 -0.509804 -0.568627 0 
-0.529412 -0.54902 0 -0.509804 -0.54902 0 -0.490196 -0.568627 0 
-0.470588 -0.568627 0 -0.490196 -0.54902 0 -0.470588 -0.54902 0 
-0.45098 -0.568627 0 -0.431373 -0.568627 0 -0.45098 -0.54902 0 
-0.431373 -0.54902 0 -0.411765 -0.568627 0 -0.392157 -0.568627 0 
-0.411765 -0.54902 0 -0.392157 -0.54902 0 -0.372549 -0.568627 0 
-0.352941 -0.568627 0 -0.352941 -0.54902 0 -0.372549 -0.54902 0 
-0.333333 -0.568627 0 -0.313726 -0.568627 0 -0.313726 -0.54902 0 
-0.333333 -0.54902 0 -0.607843 -0.529412 0 -0.588235 -0.529412 0 
-0.607843 -0.509804 0 -0.588235 -0.509804 0 -0.568627 -0.529412 0 
-0.54902 -0.529412 0 -0.568627 -0.509804 0 -0.54902 -0.509804 0 
-0.529412 -0.529412 0 -0.509804 -0.529412 0 -0.529412 -0.509804 0 
-0.509804 -0.509804 0 -0.470588 -0.509804 0 -0.490196 -0.509804 0 
-0.470588 -0.529412 0 -0.490196 -0.529412 0 -0.431373 -0.509804 0 
-0.45098 -0.509804 0 -0.431373 -0.529412 0 -0.45098 -0.529412 0 
-0.392157 -0.509804 0 -0.411765 -0.509804 0 -0.392157 -0.529412 0 
-0.411765 -0.529412 0 -0.352941 -0.509804 0 -0.372549 -0.509804 0 
-0.352941 -0.529412 0 -0.372549 -0.529412 0 -0.313726 -0.509804 0 
-0.333333 -0.509804 0 -0.313726 -0.529412 0 -0.333333 -0.529412 0 
-0.607843 -0.490196 0 -0.588235 -0.490196 0 -0.607843 -0.470588 0 
-0.588235 -0.470588 0 -0.568627 -0.490196 0 -0.54902 -0.490196 0 
-0.568627 -0.470588 0 -0.54902 -0.470588 0 -0.529412 -0.490196 0 
-0.509804 -0.490196 0 -0.529412 -0.470588 0 -0.509804 -0.470588 0 
-0.5 -0.491837 0 -0.480699 -0.499352 0 -0.484654 -0.473634 0 
-0.466134 -0.472935 0 -0.463931 -0.485015 0 -0.453637 -0.499461 0 
-0.446017 -0.473618 0 -0.429362 -0.472453 0 -0.429982 -0.499245 0 
-0.423766 -0.484984 0 -0.405661 -0.494972 0 -0.407979 -0.468514 0 
-0.391288 -0.48195 0 -0.382005 -0.497656 0 -0.360288 -0.497254 0 
-0.38492 -0.465482 0 -0.366977 -0.478096 0 -0.357812 -0.466321 0 
-0.339264 -0.495262 0 -0.31667 -0.49963 0 -0.339628 -0.475247 0 
-0.325835 -0.47075 0 -0.311335 -0.472686 0 -0.607843 -0.45098 0 
-0.588235 -0.45098 0 -0.607843 -0.431373 0 -0.588235 -0.431373 0 
-0.568627 -0.45098 0 -0.54902 -0.45098 0 -0.568627 -0.431373 0 
-0.54902 -0.431373 0 -0.529412 -0.45098 0 -0.509804 -0.45098 0 
-0.529412 -0.431373 0 -0.509804 -0.431373 0 -0.472385 -0.4523 0 
-0.489255 -0.444561 0 -0.5 -0.463141 0 -0.5 -0.42856 0 
-0.470344 -0.431656 0 -0.455687 -0.451726 0 -0.453304 -0.425262 0 
-0.440401 -0.444678 0 -0.426516 -0.430457 0 -0.424535 -0.452547 0 
-0.402901 -0.450962 0 -0.407772 -0.433629 0 -0.39019 -0.43163 0 
-0.378135 -0.448688 0 -0.363684 -0.443191 0 -0.360754 -0.424992 0 
-0.344763 -0.451498 0 -0.334506 -0.440812 0 -0.318639 -0.446877 0 
-0.313833 -0.427922 0 -0.607843 -0.411765 0 -0.588235 -0.411765 0 
-0.607843 -0.392157 0 -0.588235 -0.392157 0 -0.568627 -0.411765 0 
-0.54902 -0.411765 0 -0.568627 -0.392157 0 -0.54902 -0.392157 0 
-0.529412 -0.411765 0 -0.509804 -0.411765 0 -0.529412 -0.392157 0 
-0.509804 -0.392157 0 -0.481917 -0.418799 0 -0.495327 -0.401625 0 
-0.476652 -0.391696 0 -0.46509 -0.406253 0 -0.440331 -0.415786 0 
-0.451769 -0.394548 0 -0.435084 -0.393944 0 -0.419228 -0.410367 0 
-0.419537 -0.386727 0 -0.403551 -0.408795 0 -0.398663 -0.393196 0 
-0.38002 -0.418446 0 -0.379602 -0.400845 0 -0.36144 -0.402577 0 
-0.350489 -0.389736 0 -0.345529 -0.419803 0 -0.335004 -0.394453 0 
-0.329933 -0.416146 0 -0.316282 -0.401674 0 -0.607843 -0.372549 0 
-0.588235 -0.372549 0 -0.607843 -0.352941 0 -0.588235 -0.352941 0 
-0.568627 -0.372549 0 -0.54902 -0.372549 0 -0.568627 -0.352941 0 
-0.54902 -0.352941 0 -0.529412 -0.372549 0 -0.509804 -0.372549 0 
-0.529412 -0.352941 0 -0.509804 -0.352941 0 -0.469368 -0.376798 0 
-0.496021 -0.377013 0 -0.480757 -0.363773 0 -0.497822 -0.349717 0 
-0.44657 -0.372865 0 -0.455216 -0.35824 0 -0.431922 -0.364769 0 
-0.413051 -0.370832 0 -0.423712 -0.347368 0 -0.398037 -0.3639 0 
-0.38523 -0.377652 0 -0.369065 -0.378207 0 -0.380871 -0.354707 0 
-0.35717 -0.364942 0 -0.340867 -0.366582 0 -0.334321 -0.347723 0 
-0.325219 -0.377054 0 -0.316928 -0.360366 0 -0.607843 -0.333333 0 
-0.588235 -0.333333 0 -0.607843 -0.313726 0 -0.588235 -0.313726 0 
-0.568627 -0.333333 0 -0.54902 -0.333333 0 -0.568627 -0.313726 0 
-0.54902 -0.313726 0 -0.529412 -0.333333 0 -0.509804 -0.333333 0 
-0.529412 -0.313726 0 -0.509804 -0.313726 0 -0.466316 -0.345378 0 
-0.482137 -0.340435 0 -0.467459 -0.31865 0 -0.484142 -0.320262 0 
-0.497675 -0.310099 0 -0.440101 -0.340168 0 -0.451731 -0.328421 0 
-0.435175 -0.317846 0 -0.402948 -0.343001 0 -0.415753 -0.330545 0 
-0.418536 -0.310231 0 -0.396639 -0.315896 0 -0.387361 -0.334357 0 
-0.365883 -0.34644 0 -0.370491 -0.32467 0 -0.356391 -0.313761 0 
-0.350148 -0.338131 0 -0.318578 -0.338516 0 -0.322221 -0.318459 0 
-0.339588 -0.322391 0 -0.607843 -0.294118 0 -0.588235 -0.294118 0 
-0.607843 -0.27451 0 -0.588235 -0.27451 0 -0.568627 -0.294118 0 
-0.54902 -0.294118 0 -0.568627 -0.27451 0 -0.54902 -0.27451 0 
-0.529412 -0.294118 0 -0.509804 -0.294118 0 -0.529412 -0.27451 0 
-0.509804 -0.27451 0 -0.495513 -0.279404 0 -0.478545 -0.284196 0 
-0.47176 -0.297798 0 -0.458336 -0.280356 0 -0.437129 -0.279009 0 
-0.436131 -0.297742 0 -0.453517 -0.302421 0 -0.417408 -0.283469 0 
-0.395576 -0.279036 0 -0.40422 -0.297915 0 -0.380508 -0.283407 0 
-0.366955 -0.295391 0 -0.352198 -0.283488 0 -0.382122 -0.308045 0 
-0.327267 -0.277463 0 -0.32433 -0.297817 0 -0.34157 -0.29885 0 
-0.30966 -0.278157 0 -0.607843 -0.254902 0 -0.588235 -0.254902 0 
-0.607843 -0.235294 0 -0.588235 -0.235294 0 -0.568627 -0.254902 0 
-0.54902 -0.254902 0 -0.568627 -0.235294 0 -0.54902 -0.235294 0 
-0.529412 -0.254902 0 -0.509804 -0.254902 0 -0.529412 -0.235294 0 
-0.509804 -0.235294 0 -0.478046 -0.262503 0 -0.498905 -0.254657 0 
-0.478506 -0.243392 0 -0.443131 -0.262871 0 -0.461008 -0.259227 0 
-0.461406 -0.237566 0 -0.434724 -0.239845 0 -0.425807 -0.25416 0 
-0.411409 -0.2672 0 -0.397125 -0.252223 0 -0.410008 -0.23989 0 
-0.368445 -0.267294 0 -0.381769 -0.255329 0 -0.358611 -0.252168 0 
-0.370524 -0.234674 0 -0.343629 -0.26785 0 -0.327565 -0.255027 0 
-0.343347 -0.241844 0 -0.311828 -0.252585 0 -0.607843 -0.215686 0 
-0.588235 -0.215686 0 -0.607843 -0.196078 0 -0.588235 -0.196078 0 
-0.568627 -0.215686 0 -0.54902 -0.215686 0 -0.568627 -0.196078 0 
-0.54902 -0.196078 0 -0.529412 -0.215686 0 -0.509804 -0.215686 0 
-0.529412 -0.196078 0 -0.509804 -0.196078 0 -0.491516 -0.229344 0 
-0.464676 -0.217794 0 -0.472226 -0.205729 0 -0.490547 -0.21208 0 
-0.446573 -0.228851 0 -0.430204 -0.210454 0 -0.44546 -0.204448 0 
-0.387064 -0.230599 0 -0.418555 -0.22334 0 -0.400148 -0.218449 0 
-0.408371 -0.198991 0 -0.391813 -0.19608 0 -0.356638 -0.223996 0 
-0.377873 -0.210796 0 -0.365835 -0.200637 0 -0.348153 -0.209296 0 
-0.33159 -0.230269 0 -0.322299 -0.218253 0 -0.335039 -0.198477 0 
-0.607843 -0.176471 0 -0.588235 -0.176471 0 -0.607843 -0.156863 0 
-0.588235 -0.156863 0 -0.568627 -0.176471 0 -0.54902 -0.176471 0 
-0.568627 -0.156863 0 -0.54902 -0.156863 0 -0.529412 -0.176471 0 
-0.509804 -0.176471 0 -0.529412 -0.156863 0 -0.509804 -0.156863 0 
-0.496455 -0.190528 0 -0.47629 -0.181559 0 -0.464226 -0.15773 0 
-0.482698 -0.166082 0 -0.443994 -0.186627 0 -0.463066 -0.187441 0 
-0.433391 -0.168907 0 -0.449494 -0.162496 0 -0.423563 -0.189723 0 
-0.412913 -0.172873 0 -0.396618 -0.173868 0 -0.380375 -0.179413 0 
-0.362725 -0.179768 0 -0.380333 -0.155759 0 -0.363196 -0.15774 0 
-0.320097 -0.189488 0 -0.346005 -0.182497 0 -0.344371 -0.162182 0 
-0.327896 -0.168811 0 -0.607843 -0.137255 0 -0.588235 -0.137255 0 
-0.607843 -0.117647 0 -0.588235 -0.117647 0 -0.568627 -0.137255 0 
-0.54902 -0.137255 0 -0.568627 -0.117647 0 -0.54902 -0.117647 0 
-0.529412 -0.137255 0 -0.509804 -0.137255 0 -0.529412 -0.117647 0 
-0.509804 -0.117647 0 -0.498969 -0.15314 0 -0.481168 -0.145959 0 
-0.467817 -0.133578 0 -0.473973 -0.117457 0 -0.490523 -0.125216 0 
-0.429207 -0.148208 0 -0.446335 -0.141422 0 -0.446825 -0.124616 0 
-0.427145 -0.119852 0 -0.411111 -0.152828 0 -0.393591 -0.146397 0 
-0.415592 -0.132317 0 -0.396676 -0.126714 0 -0.371774 -0.135373 0 
-0.353141 -0.139338 0 -0.381085 -0.118578 0 -0.360482 -0.116966 0 
-0.321694 -0.151598 0 -0.336213 -0.138844 0 -0.343239 -0.116652 0 
-0.321944 -0.126714 0 -0.607843 -0.0980392 0 -0.588235 -0.0980392 0 
-0.607843 -0.0784314 0 -0.588235 -0.0784314 0 -0.568627 -0.0980392 0 
-0.54902 -0.0980392 0 -0.568627 -0.0784314 0 -0.54902 -0.0784314 0 
-0.529412 -0.0980392 0 -0.509804 -0.0980392 0 -0.529412 -0.0784314 0 
-0.509804 -0.0784314 0 -0.469627 -0.094417 0 -0.498289 -0.106296 0 
-0.483893 -0.0884535 0 -0.437312 -0.104663 0 -0.457367 -0.106444 0 
-0.431453 -0.0821148 0 -0.448351 -0.0843088 0 -0.406746 -0.109028 0 
-0.418151 -0.0955035 0 -0.391024 -0.0981894 0 -0.402396 -0.0824334 0 
-0.371817 -0.0984764 0 -0.352998 -0.0946512 0 -0.378038 -0.079798 0 
-0.329959 -0.105801 0 -0.312761 -0.101945 0 -0.338548 -0.084473 0 
-0.322571 -0.0816878 0 -0.607843 -0.0588235 0 -0.588235 -0.0588235 0 
-0.607843 -0.0392157 0 -0.588235 -0.0392157 0 -0.568627 -0.0588235 0 
[...]
POINT_DATA 3969
FIELD FieldData 5
id 1 3969 int
161 162 167 168 163 164 169 170 165 
166 171 172 107 108 123 124 109 110 
125 126 111 112 127 128 113 114 129 
130 115 116 131 132 173 174 179 180 
175 176 181 182 177 178 183 184 139 
140 155 156 141 142 157 158 143 144 
159 160 145 146 153 154 147 148 151 
152 185 186 191 192 187 188 193 194 
189 190 195 196 119 120 149 150 117 
118 137 138 105 106 135 136 103 104 
133 134 101 102 121 122 197 198 203 
204 199 200 205 206 201 202 207 208 
1013 1015 1499 2242 1019 1021 1759 2628 1023 
2645 2470 1832 1732 1411 2483 3387 771 1808 
263 2546 54 65 2799 209 210 215 216 
211 212 217 218 213 214 219 220 2788 
1016 1009 9 623 1779 1780 531 1816 280 
1774 1793 770 1504 1790 1307 519 379 1029 
640 221 222 227 228 223 224 229 230 
225 226 231 232 622 1803 1798 292 1775 
610 1665 62 73 1809 1683 759 1602 85 
562 1126 1691 1580 1354 233 234 239 240 
235 236 241 242 237 238 243 244 571 
1529 1794 2487 632 1046 13 791 586 1276 
1076 1486 1043 88 1339 1263 1535 1310 245 
246 251 252 247 248 253 254 249 250 
255 256 1646 1776 369 2790 1592 354 390 
33 344 19 1101 1324 503 1519 1252 1643 
1265 1294 1387 1131 407 408 413 414 409 
410 415 416 411 412 417 418 614 2769 
2531 320 1395 1657 792 1129 1266 1109 1153 
1290 1275 1151 1431 1456 1524 1317 419 420 
425 426 421 422 427 428 423 424 429 
430 2753 1017 2748 570 260 540 1576 556 
1088 1267 313 1139 1104 1371 1359 1372 1343 
1400 1331 431 432 437 438 433 434 439 
440 435 436 441 442 96 564 611 655 
1099 1452 43 1305 333 1597 1110 1121 1344 
1482 1455 1358 1362 1329 1346 443 444 449 
450 445 446 451 452 447 448 453 454 
86 1778 1745 1058 1614 1293 1588 1051 1453 
1295 1325 1496 1373 355 1423 1345 1555 1572 
1374 455 456 461 462 457 458 463 464 
459 460 465 466 1022 2738 36 1730 782 
1501 554 330 1084 1135 1118 1599 1147 1119 
1321 506 1133 1441 1541 1320 1478 467 468 
473 474 469 470 475 476 471 472 477 
478 612 1020 654 1640 1610 270 1815 1261 
542 1090 1647 381 1257 1645 1120 1137 1134 
1437 479 480 485 486 481 482 487 488 
483 484 489 490 1012 400 590 1725 781 
301 520 1782 1091 1059 1637 1593 592 1092 
1281 1152 1525 1304 491 492 493 494 495 
496 644 2471 7 1018 2806 1081 1651 1598 
1830 1560 1323 1633 1556 1396 314 1551 1351 
1136 1149 1537 1365 1258 657 658 663 664 
659 660 665 666 661 662 667 668 312 
1618 1763 1143 63 1791 560 1438 523 1656 
1532 304 534 1253 1140 1262 1291 284 669 
670 675 676 671 672 677 678 673 674 
679 680 2674 34 2658 2034 550 396 2721 
1483 1611 1338 555 1688 1586 1689 1521 1108 
1616 1506 1565 681 682 687 688 683 684 
689 690 685 686 691 692 2725 1770 2706 
1487 1368 2770 1761 1547 1543 1639 545 1087 
1264 1369 1063 1574 1141 1070 575 693 694 
699 700 695 696 701 702 697 698 703 
704 1814 1622 501 1784 1813 1728 2802 2517 
1155 55 510 1672 1107 45 1049 1123 1114 
275 1399 705 706 711 712 707 708 713 
714 709 710 715 716 1726 1533 1986 1577 
392 1661 53 331 1797 1735 380 1792 530 
1795 282 515 653 30 346 500 717 718 
723 724 719 720 725 726 721 722 727 
728 646 2 1652 1 1738 302 2678 1787 
1590 1484 1743 1764 66 97 633 1760 1041 
1062 2805 1398 76 729 730 735 736 731 
732 737 738 733 734 739 740 1729 1014 
21 2018 1786 5 1742 1756 581 1769 1054 
772 1749 1800 44 521 1796 741 742 747 
748 743 744 749 750 745 746 751 752 
4 31 41 61 6 11 1531 1741 1680 
1080 1767 1518 1687 1762 48 98 321 261 
913 914 919 920 915 916 921 922 917 
918 923 924 257 1677 91 2610 2580 1620 
1664 1650 1723 1783 512 1675 1746 532 391 
361 1744 1765 1801 925 926 931 932 927 
928 933 934 929 930 935 936 1693 357 
596 2066 507 1383 1098 71 2564 20 594 
1033 2547 1503 8 1038 1563 553 1514 393 
937 938 943 944 939 940 945 946 941 
942 947 948 547 397 1026 597 647 1128 
557 317 1558 1607 1397 1559 1673 22 514 
10 1621 1517 1578 1488 1035 949 950 955 
956 951 952 957 958 953 954 959 960 
577 753 783 793 527 72 558 348 617 
327 627 537 297 587 1028 598 377 1112 
517 961 962 967 968 963 964 969 970 
965 966 971 972 774 803 833 843 813 
814 844 754 773 784 845 823 804 846 
847 764 834 848 973 974 979 980 975 
976 981 982 977 978 983 984 859 860 
875 876 861 862 877 878 863 864 879 
880 865 866 881 882 867 868 883 884 
985 986 991 992 987 988 993 994 989 
990 995 996 891 892 907 908 893 894 
909 910 895 896 911 912 897 898 905 
906 899 900 903 904 997 998 1003 1004 
999 1000 1005 1006 1001 1002 1007 1008 871 
872 901 902 869 870 889 890 857 858 
887 888 855 856 885 886 853 854 873 
874 1159 1160 1174 1175 1161 1162 1176 1177 
1163 1164 1178 1179 1165 1166 1180 1181 1167 
1168 1182 1183 1169 1170 1184 1185 1171 1172 
1186 1187 1173 1188 1189 1190 1204 1205 1191 
1192 1206 1207 1193 1194 1208 1209 1195 1196 
1210 1211 1197 1198 1212 1213 1199 1200 1214 
1215 1201 1202 1216 1217 1203 1218 1219 1220 
1234 1235 1221 1222 1236 1237 1223 1224 1238 
1239 1225 1226 1240 1241 1227 1228 1242 1243 
1229 1230 1244 1245 1231 1232 1246 1247 1233 
1248 2728 370 621 642 1788 3229 3374 1818 
1748 652 1158 582 2781 1064 3462 1992 84 
559 780 2818 1810 1308 801 2715 2795 1833 
1777 3384 2821 281 1799 334 574 27 1044 
779 584 83 1608 499 382 271 1658 1425 
1737 1591 375 758 1067 1073 1826 1827 651 
1513 2808 14 82 339 1096 600 359 768 
2796 1094 1682 1298 1277 1581 1069 1381 1093 
1674 1148 1125 1296 1596 89 1095 522 1292 
50 1546 1642 342 812 767 1306 403 26 
516 589 802 2534 1824 1124 1259 1138 325 
1117 345 1632 1573 283 1520 356 1567 1089 
406 366 552 336 1516 1507 1628 1550 1045 
1627 1127 1024 1071 1717 99 566 790 799 
1386 1401 1416 1492 1357 1538 1446 1554 1102 
285 1342 1370 1477 1568 1445 1122 1409 1260 
1511 343 1146 1156 266 1410 1144 265 1648 
303 49 757 1669 1100 529 1789 1328 1341 
1569 1105 1286 1318 1314 1285 1384 1271 1415 
1327 1603 1301 1540 1315 1625 376 395 573 
1061 513 1502 1353 259 2836 290 1348 1347 
1302 1378 1364 1332 1333 1392 1407 1349 1287 
1393 1316 1270 1601 1424 1356 1522 1313 525 
1086 1582 1366 335 524 67 1736 509 1663 
268 93 349 399 1330 1375 1360 1377 1363 
1376 1420 1406 1379 1334 1421 1350 1458 1367 
1299 1571 1380 1594 262 1552 1718 1280 620 
70 2274 498 789 1050 1485 1432 1493 1417 
1389 1447 1361 1391 1404 1402 1390 1451 1405 
1449 1429 1585 1312 1355 1570 1337 1116 1103 
1553 1322 533 402 329 28 822 3209 1785 
1561 3303 1509 1539 1510 1523 1448 1388 1418 
1403 1481 1436 1272 1490 1542 1085 1309 535 
1060 264 39 1068 1804 593 1106 798 12 
788 778 319 64 3427 388 1480 1336 1479 
1508 1433 1443 1494 1408 1434 1422 1268 1303 
1340 276 363 1526 405 1527 78 1641 502 
309 585 307 1459 1460 1757 3454 1579 1461 
1394 1495 1419 1274 1450 1442 1435 1256 1300 
1505 383 1251 1587 1606 75 583 606 561 
528 1462 1466 579 549 1463 1464 1467 1468 
1465 1469 1512 1289 1534 1150 1273 1440 1311 
1288 1255 1474 1414 1249 1352 504 305 1536 
17 800 1056 1470 1805 1471 1472 1473 1254 
1282 1489 1284 1335 1319 1283 1326 1497 1557 
1604 316 1679 1055 1626 624 79 777 1694 
1695 1699 1823 269 1696 1697 1700 1701 1698 
1702 1491 1269 1385 1297 1612 1476 1457 1075 
1624 326 1154 1279 1615 77 386 1721 1589 
656 1690 1703 1707 569 810 518 29 1704 
1705 1708 1709 1706 1710 1475 1430 90 60 
1609 1635 1660 286 1644 306 296 544 1130 
1584 1132 1040 626 1530 401 1053 809 1036 
1822 299 1711 1712 2840 811 1843 1713 1828 
1862 1428 505 1600 546 1564 384 374 1113 
394 1048 315 1145 1629 1382 56 1074 602 
59 1427 353 1636 615 1595 756 619 24 
2830 1820 2852 819 1115 601 1042 1631 1662 
311 365 1613 37 340 565 404 46 1617 
1077 1444 322 1751 625 1072 373 1684 295 
2423 310 1082 298 599 2827 609 1841 832 
760 1605 1039 350 1157 1634 526 364 385 
1528 1250 1562 68 603 47 1766 595 2595 
352 1655 1638 372 1011 81 497 1025 588 
2831 630 808 1848 1079 38 1142 1678 1566 
591 576 1066 1575 511 1111 272 57 635 
2578 293 1583 1747 294 1733 1653 100 1083 
1037 1623 1649 92 23 3502 1821 797 2839 
551 40 643 1549 87 1078 1057 360 1781 
634 371 1544 1548 1654 563 1454 324 2338 
1722 536 1097 1052 267 538 300 32 821 
1844 796 274 1715 273 58 1772 541 616 
1716 69 1771 1685 1412 1754 332 604 1670 
362 543 1724 1666 1630 308 42 1030 288 
650 578 639 548 787 830 1819 2843 2835 
1739 605 1731 80 1740 1755 1659 1686 323 
1671 2503 1545 2629 3 15 1692 1676 1010 
18 287 328 378 755 629 766 618 828 
820 1840 1065 1720 1500 1027 1515 1031 1278 
1667 1681 387 1034 52 1047 1032 367 277 
567 318 568 278 649 608 776 806 816 
817 807 818 1838 1845 2841 1852 16 398 
25 51 508 337 347 607 368 648 338 
775 358 637 628 805 765 786 815 839 
840 841 831 842 1836 1835 1842 1839 2850 
763 794 850 849 638 795 824 851 835 
852 785 825 1849 1850 836 826 1851 837 
1853 827 1854 838 1855 829 1856 1857 1834 
1858 1859 1837 1860 1861 1863 1864 1865 1879 
1880 1866 1867 1881 1882 1868 1869 1883 1884 
1870 1871 1885 1886 1872 1873 1887 1888 1874 
1875 1889 1890 1876 1877 1891 1892 1878 1893 
1894 1895 1909 1910 1896 1897 1911 1912 1898 
1899 1913 1914 1900 1901 1915 1916 1902 1903 
1917 1918 1904 1905 1919 1920 1906 1907 1921 
1922 1908 1923 1924 1925 1939 1940 1926 1927 
1941 1942 1928 1929 1943 1944 1930 1931 1945 
1946 1932 1933 1947 1948 1934 1935 1949 1950 
1937 1952 1951 1936 1938 1953 2114 2115 2130 
2131 2116 2117 2132 2133 2118 2119 2134 2135 
2120 2121 2136 2137 2122 2123 2138 2139 2124 
2125 2140 2141 2126 2127 2142 2143 2128 2129 
2144 2145 2146 2147 2162 2163 2148 2149 2164 
2165 2150 2151 2166 2167 2152 2153 2168 2169 
2154 2155 2170 2171 2156 2157 2172 2173 2158 
2159 2174 2175 2160 2161 2176 2177 2178 2179 
2194 2195 2180 2181 2196 2197 2182 2183 2198 
2199 2184 2185 2200 2201 2186 2187 2202 2203 
2188 2189 2204 2205 2190 2191 2206 2207 2192 
2193 2208 2209 1954 74 2984 631 3348 1829 
3137 2743 641 3388 3406 1807 291 3278 2053 
2779 769 3188 3433 3299 94 3367 2765 2976 
2797 2791 645 3128 2793 351 1758 2814 279 
2998 2651 2815 3482 2592 3378 2816 389 2801 
3279 3474 2828 1973 3473 2988 3253 3472 2373 
2605 580 3012 2809 2637 2607 1812 3464 3446 
2812 3369 1439 3269 2051 2455 2544 2650 3334 
3255 3010 3130 2259 2012 2010 3226 3165 3145 
2044 2039 3035 3312 3057 2108 2626 3005 3343 
3043 3185 2030 3339 2057 2837 258 1980 35 
2565 1806 3447 2985 2418 2729 3125 3133 3284 
2757 3004 3282 2497 2321 2574 2112 2342 2101 
2424 2096 3212 2222 2272 2337 3195 2089 3042 
3407 95 1619 2826 2635 1847 2371 2502 2036 
3316 2323 3187 2506 2496 3134 2599 2357 2100 
2403 3292 2073 2103 2421 3204 2293 2425 2367 
2456 2490 2405 2400 2063 2375 3475 3415 2834 
3048 3359 3242 3144 2014 2028 3326 2016 2038 
3213 2262 3244 2308 2075 2521 2557 2282 3132 
2494 2302 2300 2314 2297 2313 2298 2318 2350 
2334 2825 3050 289 3049 1987 3003 3054 2017 
2419 3214 2283 2047 2352 2555 2235 2401 2250 
2285 2336 2280 2249 2310 2218 2265 2296 2281 
2295 2328 2299 2317 2819 3174 2623 3309 2975 
3345 2669 2829 3398 2528 2239 3015 2563 2368 
3183 2301 2234 2393 2284 2236 2266 2248 2458 
2394 2311 2426 2264 2312 2360 2343 2329 2327 
2345 3492 3158 3154 2067 2972 1989 3483 2625 
3135 3034 2510 2763 2088 3045 3267 2320 2542 
2351 2279 2231 2233 2378 2377 2395 2380 2361 
2330 2344 2331 1994 2986 3437 3465 3159 3160 
2643 3246 3389 3216 3060 3014 2591 2341 2288 
3403 2324 2252 2585 3323 2254 2427 2379 2410 
2346 2364 2316 2349 2347 3030 2430 2431 2432 
2433 2434 2618 1846 2772 3352 2559 2275 2359 
2020 2420 2479 2319 2411 2267 2219 2362 2397 
2412 2398 2382 2348 2363 2435 2436 2440 2441 
2437 2438 2442 2443 2439 2444 2226 3227 2005 
2271 2384 2229 2416 2511 2566 2247 2396 2353 
2428 2381 2413 2460 2509 2365 2422 2429 2445 
2446 2447 2448 2449 3456 3169 2718 1965 2983 
2099 2060 2113 2292 2407 2526 2303 2255 2102 
2461 2459 2326 2294 2477 2278 2492 2476 2680 
2681 2686 2687 2682 2683 2688 2689 2684 2685 
2690 3349 2824 3289 3276 2029 2973 3262 2062 
2602 2577 2069 2214 2335 2286 2107 2253 2404 
2489 2507 2402 2263 2691 2692 2696 2697 2693 
2694 2698 2699 2817 2695 2700 3476 3139 2535 
3365 2670 3205 3233 2025 3126 2408 2571 2537 
2369 2055 2586 2589 2251 2304 3232 2237 2105 
1825 2701 2702 2705 2832 3485 3484 2703 2704 
3466 3221 2616 1976 2007 2762 3206 2211 2061 
2463 2004 3016 3236 2087 2505 3202 3002 3274 
2385 3222 3314 2220 2268 2064 2495 2833 3457 
3178 3438 3189 3140 2339 2019 2659 2649 2673 
3297 3393 3176 3337 3375 2582 3235 2244 2575 
3153 2071 2049 2245 2570 2048 2059 2276 3324 
2225 3263 3280 3199 3495 3170 3408 2987 2002 
2978 3175 2609 2485 3053 2759 1997 3275 3207 
3287 3193 2545 3423 2097 2289 3332 2080 2556 
2072 2230 2065 3293 2085 3184 2083 3496 3179 
3329 1981 1974 3304 3009 2486 2033 3335 2746 
3217 3024 2737 2766 3037 2256 2023 2603 3052 
3006 3313 3172 2608 3224 2798 1993 3152 2257 
3310 3477 3379 1990 2549 3190 1977 2666 3382 
2498 2468 3286 2466 2719 2011 3422 2013 3376 
2747 572 3019 3394 2993 2820 3026 3396 2543 
2078 2604 2037 3046 2536 3493 3219 3494 3428 
1985 3180 2488 2619 2452 2484 2655 2642 3196 
3336 2749 3366 2751 3395 3356 3166 1964 1995 
3177 2773 2764 3307 3355 1719 2022 3228 3136 
3399 2862 3419 3281 2999 3311 1982 3300 2990 
2981 2667 2639 2356 2630 2516 2451 2713 2515 
3266 2730 3354 3306 2787 2778 2716 3412 2774 
2050 2771 3247 2735 2745 3413 3486 2845 3448 
2847 3400 3250 3370 3230 3261 3181 3000 1975 
2354 2962 2653 3021 3302 3344 2597 3392 2648 
3372 2641 2594 3373 2707 3402 2514 2499 2846 
3506 3504 3467 3487 3320 3409 3390 3449 3360 
3301 3168 2989 3330 3161 3171 3210 2969 3191 
1413 2003 2726 3131 2390 3285 3051 1972 2646 
2624 2615 2842 2856 2844 2849 3497 3513 3498 
3478 3458 3505 3439 3468 3499 3489 3429 3200 
3410 3290 3350 3270 3421 3040 3251 3430 3341 
3391 3271 3240 3151 2851 2838 2853 2848 2854 
2855 3512 3503 2857 2858 3514 2859 3515 2860 
3516 3507 2861 3517 2863 3488 3508 2864 2865 
3518 3509 3469 3522 3523 3519 3510 3524 3459 
3525 3479 2866 2867 2882 2883 2868 2869 2884 
2885 2870 2871 2886 2887 2872 2873 2888 2889 
2874 2875 2890 2891 2876 2877 2892 2893 2878 
2879 2894 2895 2880 2881 2896 2897 2898 2899 
2914 2915 2900 2901 2916 2917 2902 2903 2918 
2919 2904 2905 2920 2921 2906 2907 2922 2923 
2908 2909 2924 2925 2910 2911 2926 2927 2912 
2913 2928 2929 2930 2931 2946 2947 2932 2933 
2948 2949 2934 2935 2950 2951 2936 2937 2952 
2953 2938 2939 2954 2955 2940 2941 2956 2957 
2959 2958 2943 2942 2944 2960 2961 2945 3062 
3063 3078 3079 3064 3065 3080 3081 3066 3067 
3082 3083 3068 3069 3084 3085 3070 3071 3086 
3087 3592 3593 3598 3599 3594 3595 3600 3601 
3596 3597 3602 3603 3094 3095 3110 3111 3096 
3097 3112 3113 3098 3099 3114 3115 3100 3101 
3116 3117 3102 3103 3118 3119 3604 3605 3610 
3611 3606 3607 3612 3613 3608 3609 3614 3615 
3090 3091 3120 3121 3088 3089 3108 3109 3076 
3077 3106 3107 3074 3075 3104 3105 3072 3073 
3092 3093 3616 3617 3622 3623 3618 3619 3624 
3625 3620 3621 3626 3627 1768 1752 3425 2307 
1831 2810 2807 2731 2800 1727 539 2785 2742 
3056 2727 1955 1668 1956 2662 2454 1961 1962 
1967 3628 3629 3634 3635 3630 3631 3636 3637 
3632 3633 3638 3639 3157 3272 2009 3259 2823 
2068 2560 3318 3032 3358 2995 2783 3368 3377 
2644 1959 2710 1968 3640 3641 3646 3647 3642 
3643 3648 3649 3644 3645 3650 3651 2656 3245 
2046 3362 3455 2665 3333 3417 3260 3129 2994 
1979 3397 3215 3319 1957 2782 1958 2548 3652 
3653 3658 3659 3654 3655 3660 3661 3656 3657 
3662 3663 2086 2106 3044 2221 2992 3364 3059 
2472 2614 3418 2613 2638 3149 761 2811 3338 
3249 2082 2098 3664 3665 3670 3671 3666 3667 
3672 3673 3668 3669 3674 3675 2223 2572 2529 
2277 3013 2224 2228 3436 3353 3383 2593 2979 
2043 3028 3198 2212 3424 2963 3416 3442 3676 
3677 3682 3683 3679 3685 3684 3678 3687 3686 
3681 3680 2554 2241 2399 2358 2474 2270 2480 
2015 2464 3025 3264 2054 2040 3163 1983 2081 
1811 2664 2243 2767 3443 1498 3688 3689 3694 
3695 3690 3691 3696 3697 3692 3693 3698 3699 
2387 2540 2415 2366 2058 2094 2553 3296 3203 
2215 2406 2045 2391 2636 2822 3223 1817 3700 
3701 3706 3707 3702 3703 3708 3709 3704 3705 
3710 3711 2522 2333 2541 3182 2240 3283 2600 
3237 2091 3164 2567 2741 3138 2654 2803 1714 
3712 3713 3718 3719 3714 3715 3720 3721 3716 
3717 3722 3723 2332 2525 2383 2315 2273 2325 
3192 2246 2539 2309 2077 2568 2093 2261 3463 
2997 3124 3426 2786 2813 3414 2001 3724 3725 
3730 3731 3726 3727 3732 3733 3728 3729 3734 
3735 2462 2414 2478 2388 2111 2508 2076 2457 
3315 2520 2588 2291 3173 3295 3162 3047 3452 
3218 2006 2736 3736 3737 3742 3743 3738 3739 
3744 3745 3740 3741 3746 3747 2523 2473 2493 
2491 2524 2269 2074 2092 2500 3186 2671 3294 
2668 3258 2501 2732 2622 2776 1960 3748 3749 
3754 3755 3750 3751 3756 3757 3752 3753 3758 
3759 2475 2392 2389 2409 2109 3023 2217 3305 
2660 2027 2070 3363 2031 3142 3022 3435 1970 
3146 2768 3760 3761 3766 3767 3762 3763 3768 
3769 3764 3765 3770 3771 2110 2376 2104 2386 
2260 2305 2581 3033 2551 2041 2026 2583 3254 
3445 3147 3148 3277 3444 1773 2258 3772 3773 
3775 3774 3777 3776 2216 2090 2238 2340 2504 
2606 2558 2032 2569 2213 2552 3243 2996 3156 
3122 3017 1753 2744 1999 3778 3779 3784 3785 
3780 3781 3786 3787 3782 3783 3788 3789 2370 
2287 2538 2232 2465 2417 2587 2532 2527 1998 
2640 3434 2000 762 3058 1802 3385 3036 2754 
3790 3791 3796 3797 3792 3793 3798 3799 3794 
3795 3800 3801 2481 2573 2561 3155 3123 2584 
3322 2579 3039 2550 2227 3029 3298 3038 2355 
2780 2708 2530 3802 3803 3808 3809 3804 3805 
3810 3811 3806 3807 3812 3813 2056 2652 2513 
2042 3027 2021 2633 3225 2008 1991 3453 3234 
3208 3386 2777 2761 2717 2740 2965 3814 3815 
3820 3821 3816 3817 3822 3823 3818 3819 3824 
3825 3342 3194 3018 2095 3143 2784 2601 3007 
3308 3239 3008 3268 3357 1963 3257 2469 2733 
2723 2966 3826 3827 3832 3833 3828 3829 3834 
3835 3830 3831 3836 3837 3273 2079 2024 341 
2576 3055 2794 3252 2631 1734 3256 3328 2450 
613 2596 2621 2739 2967 2970 2971 3838 3839 
3844 3845 3840 3841 3846 3847 3842 3843 3848 
3849 3167 2620 3288 2374 2617 3347 3248 2792 
2804 3127 1426 2982 3327 2755 2677 2712 2968 
2991 3011 3850 3851 3856 3857 3852 3853 3858 
3859 3854 3855 3860 3861 2512 1996 2722 2758 
3405 3197 2750 2752 2775 3404 2714 2632 2533 
2084 2661 2709 3031 3325 3041 3862 3863 3868 
3869 3870 3865 3864 3871 3866 3872 3873 3867 
1750 2724 636 2789 2756 3432 2720 2562 3317 
2290 2964 3001 2734 2679 2467 3201 1969 3061 
3874 3875 3880 3881 3876 3877 3882 3883 3878 
3879 3884 3885 3346 2453 2676 3238 2711 2612 
2663 2760 2657 2306 2482 2647 2672 2210 2977 
1971 3211 2322 3231 3291 2590 3331 3886 3887 
3892 3893 3888 3889 3894 3895 3890 3891 3896 
3897 2372 1966 2598 3265 1988 2519 2627 2611 
1984 1978 2675 2974 2035 3321 3381 2518 3411 
3898 3899 3904 3905 3900 3901 3906 3907 3902 
3903 3908 3909 3340 3020 3401 2052 3420 3361 
2634 3371 3220 3441 3141 3241 3150 3351 3461 
2980 3431 3471 3481 3910 3911 3916 3917 3912 
3913 3918 3919 3914 3915 3920 3921 3526 3480 
3450 3451 3527 3520 3528 3490 3460 3529 3500 
3380 3470 3530 3511 3440 3491 3501 3521 3531 
3922 3923 3928 3929 3924 3925 3930 3931 3926 
3927 3932 3933 3532 3533 3548 3549 3534 3535 
3550 3551 3536 3537 3552 3553 3538 3539 3554 
3555 3540 3541 3556 3557 3934 3935 3940 3941 
3936 3937 3942 3943 3938 3939 3944 3945 3564 
3565 3580 3581 3566 3567 3582 3583 3568 3569 
3584 3585 3570 3571 3586 3587 3572 3573 3588 
3589 3946 3947 3952 3953 3948 3949 3954 3955 
3950 3951 3956 3957 3560 3561 3590 3591 3558 
3559 3578 3579 3546 3547 3576 3577 3544 3545 
3574 3575 3542 3543 3562 3563 3958 3959 3964 
3965 3960 3961 3966 3967 3962 3968 3963 3969 

C_[0] 1 3969 double
0 0 0 0 0 0 0 0 0 
0 0 0 0 0 0 0 0 0 
0 0 0 0 0 0 0 0 0 
0 0 0 0 0 0 0 0 0 
0 0 0 0 0 0 0 0 0 
0 0 0 0 0 0 0 0 0 
0 0 0 0 0 0 0 0 0 
0 0 0 0 0 0 0 0 0 
0 0 0 0 0 0 0 0 0 
0 0 0 0 0 0 0 0 0 
0 0 0 0 0 0 0 0 0 
0 0 0 0 0 0 0 0 0 
0.00141122 0.00283584 0.00952031 0.0172713 0.0118813 0.005402 0.0253963 0.0331958 0.00895653 
0.0225247 0.0155851 0.0498078 0.0380995 0.0161594 0.0195783 0.0680332 0.0583597 0.086468 
0.025685 0.0170662 0.0779416 0.0949078 0.0985703 0 0 0 0 
0 0 0 0 0 0 0 0 0.0251556 
0.0144276 0.00437989 0.00834161 0.0371092 0.0371261 0.0598309 0.0560022 0.0824635 0.0596003 
0.0776127 0.09661 0.116672 0.102244 0.12362 0.159165 0.125897 0.154409 0.157739 
0.199667 0 0 0 0 0 0 0 0 