# vtk DataFile Version 3.0
Generated by LAMMPS
ASCII
DATASET POLYDATA
POINTS 3969 float
-0.607843 -0.607843 0 -0.588235 -0.607843 0 -0.607843 -0.588235 0 
-0.588235 -0.588235 0 -0.568627 -0.607843 0 -0.54902 -0.607843 0 
-0.568627 -0.588235 0 -0.54902 -0.588235 0 -0.529412 -0.607843 0 
-0.509804 -0.607843 0 -0.529412 -0.588235 0 -0.509804 -0.588235 0 
-0.490196 -0.607843 0 -0.470588 -0.607843 0 -0.490196 -0.588235 0 
-0.470588 -0.588235 0 -0.45098 -0.607843 0 -0.431373 -0.607843 0 
-0.45098 -0.588235 0 -0.431373 -0.588235 0 -0.411765 -0.607843 0 
-0.392157 -0.607843 0 -0.411765 -0.588235 0 -0.392157 -0.588235 0 
-0.372549 -0.607843 0 -0.352941 -0.607843 0 -0.372549 -0.588235 0 
-0.352941 -0.588235 0 -0.333333 -0.607843 0 -0.313726 -0.607843 0 
-0.333333 -0.588235 0 -0.313726 -0.588235 0 -0.607843 -0.568627 0 
-0.588235 -0.568627 0 -0.607843 -0.54902 0 -0.588235 -0.54902 0 
-0.568627 -0.568627 0 -0.54902 -0.568627 0 -0.568627 -0.54902 0 
-0.54902 -0.54902 0 -0.529412 -0.568627 0 -0.509804 -0.568627 0 
-0.529412 -0.54902 0 -0.509804 -0.54902 0 -0.490196 -0.568627 0 
-0.470588 -0.568627 0 -0.490196 -0.54902 0 -0.470588 -0.54902 0 
-0.45098 -0.568627 0 -0.431373 -0.568627 0 -0.45098 -0.54902 0 
-0.431373 -0.54902 0 -0.411765 -0.568627 0 -0.392157 -0.568627 0 
-0.411765 -0.54902 0 -0.392157 -0.54902 0 -0.372549 -0.568627 0 
-0.352941 -0.568627 0 -0.352941 -0.54902 0 -0.372549 -0.54902 0 
-0.333333 -0.568627 0 -0.313726 -0.568627 0 -0.313726 -0.54902 0 
-0.333333 -0.54902 0 -0.607843 -0.529412 0 -0.588235 -0.529412 0 
-0.607843 -0.509804 0 -0.588235 -0.509804 0 -0.568627 -0.529412 0 
-0.54902 -0.529412 0 -0.568627 -0.509804 0 -0.54902 -0.509804 0 
-0.529412 -0.529412 0 -0.509804 -0.529412 0 -0.529412 -0.509804 0 
-0.509804 -0.509804 0 -0.470588 -0.509804 0 -0.490196 -0.509804 0 
-0.470588 -0.529412 0 -0.490196 -0.529412 0 -0.431373 -0.509804 0 
-0.45098 -0.509804 0 -0.431373 -0.529412 0 -0.45098 -0.529412 0 
-0.392157 -0.509804 0 -0.411765 -0.509804 0 -0.392157 -0.529412 0 
-0.411765 -0.529412 0 -0.352941 -0.509804 0 -0.372549 -0.509804 0 
-0.352941 -0.529412 0 -0.372549 -0.529412 0 -0.313726 -0.509804 0 
-0.333333 -0.509804 0 -0.313726 -0.529412 0 -0.333333 -0.529412 0 
-0.607843 -0.490196 0 -0.588235 -0.490196 0 -0.607843 -0.470588 0 
-0.588235 -0.470588 0 -0.568627 -0.490196 0 -0.54902 -0.490196 0 
-0.568627 -0.470588 0 -0.54902 -0.470588 0 -0.529412 -0.490196 0 
-0.509804 -0.490196 0 -0.529412 -0.470588 0 -0.509804 -0.470588 0 
-0.5 -0.491836 0 -0.478908 -0.5 0 -0.485905 -0.475384 0 
-0.464658 -0.474384 0 -0.462995 -0.485088 0 -0.450824 -0.499994 0 
-0.443837 -0.475821 0 -0.427746 -0.473103 0 -0.426878 -0.498648 0 
-0.418215 -0.486002 0 -0.402562 -0.495057 0 -0.395654 -0.474843 0 
-0.377858 -0.499994 0 -0.35435 -0.498539 0 -0.379814 -0.480129 0 
-0.368044 -0.472477 0 -0.334071 -0.493393 0 -0.347856 -0.477037 0 
-0.331403 -0.468687 0 -0.312718 -0.499269 0 -0.31601 -0.477204 0 
-0.607843 -0.45098 0 -0.588235 -0.45098 0 -0.607843 -0.431373 0 
-0.588235 -0.431373 0 -0.568627 -0.45098 0 -0.54902 -0.45098 0 
-0.568627 -0.431373 0 -0.54902 -0.431373 0 -0.529412 -0.45098 0 
-0.509804 -0.45098 0 -0.529412 -0.431373 0 -0.509804 -0.431373 0 
-0.473562 -0.455729 0 -0.489277 -0.443692 0 -0.5 -0.463141 0 
-0.5 -0.42856 0 -0.466973 -0.438305 0 -0.454252 -0.4537 0 
-0.443388 -0.437882 0 -0.431485 -0.451951 0 -0.413734 -0.461428 0 
-0.423942 -0.431661 0 -0.407571 -0.441875 0 -0.39876 -0.425665 0 
-0.391147 -0.455968 0 -0.355123 -0.458831 0 -0.382906 -0.444244 0 
-0.365483 -0.44227 0 -0.351323 -0.433615 0 -0.336596 -0.450151 0 
-0.326145 -0.437202 0 -0.607843 -0.411765 0 -0.588235 -0.411765 0 
-0.607843 -0.392157 0 -0.588235 -0.392157 0 -0.568627 -0.411765 0 
-0.54902 -0.411765 0 -0.568627 -0.392157 0 -0.54902 -0.392157 0 
-0.529412 -0.411765 0 -0.509804 -0.411765 0 -0.529412 -0.392157 0 
-0.509804 -0.392157 0 -0.478008 -0.422899 0 -0.492735 -0.40593 0 
-0.486616 -0.390149 0 -0.466052 -0.411319 0 -0.450673 -0.41877 0 
-0.457854 -0.39339 0 -0.443991 -0.38601 0 -0.435035 -0.411988 0 
-0.427747 -0.395063 0 -0.414581 -0.414266 0 -0.411219 -0.390572 0 
-0.396025 -0.402966 0 -0.380403 -0.42071 0 -0.383339 -0.394469 0 
-0.367711 -0.415266 0 -0.367584 -0.390379 0 -0.351698 -0.396691 0 
-0.346324 -0.416893 0 -0.333295 -0.396157 0 -0.32807 -0.416427 0 
-0.317686 -0.385556 0 -0.607843 -0.372549 0 -0.588235 -0.372549 0 
-0.607843 -0.352941 0 -0.588235 -0.352941 0 -0.568627 -0.372549 0 
-0.54902 -0.372549 0 -0.568627 -0.352941 0 -0.54902 -0.352941 0 
-0.529412 -0.372549 0 -0.509804 -0.372549 0 -0.529412 -0.352941 0 
-0.509804 -0.352941 0 -0.472893 -0.383016 0 -0.497652 -0.374018 0 
-0.479476 -0.362379 0 -0.484279 -0.347621 0 -0.436808 -0.365321 0 
-0.453959 -0.366997 0 -0.462721 -0.352749 0 -0.421442 -0.367972 0 
-0.415701 -0.348853 0 -0.403664 -0.37403 0 -0.399571 -0.345922 0 
-0.389777 -0.366154 0 -0.375318 -0.370254 0 -0.370321 -0.345594 0 
-0.358281 -0.363465 0 -0.346782 -0.376318 0 -0.338345 -0.350567 0 
-0.330527 -0.369205 0 -0.3148 -0.360216 0 -0.607843 -0.333333 0 
-0.588235 -0.333333 0 -0.607843 -0.313726 0 -0.588235 -0.313726 0 
-0.568627 -0.333333 0 -0.54902 -0.333333 0 -0.568627 -0.313726 0 
-0.54902 -0.313726 0 -0.529412 -0.333333 0 -0.509804 -0.333333 0 
-0.529412 -0.313726 0 -0.509804 -0.313726 0 -0.497094 -0.336156 0 
-0.476315 -0.320876 0 -0.47859 -0.307013 0 -0.445728 -0.340324 0 
-0.430985 -0.339789 0 -0.463091 -0.330379 0 -0.450624 -0.317703 0 
-0.433762 -0.309857 0 -0.421141 -0.321594 0 -0.404781 -0.324035 0 
-0.391436 -0.314087 0 -0.38439 -0.338831 0 -0.354041 -0.34096 0 
-0.358612 -0.317826 0 -0.374087 -0.317842 0 -0.327022 -0.311959 0 
-0.341021 -0.324247 0 -0.325215 -0.338132 0 -0.607843 -0.294118 0 
-0.588235 -0.294118 0 -0.607843 -0.27451 0 -0.588235 -0.27451 0 
-0.568627 -0.294118 0 -0.54902 -0.294118 0 -0.568627 -0.27451 0 
-0.54902 -0.27451 0 -0.529412 -0.294118 0 -0.509804 -0.294118 0 
-0.529412 -0.27451 0 -0.509804 -0.27451 0 -0.499407 -0.276796 0 
-0.479992 -0.28258 0 -0.465447 -0.286336 0 -0.496107 -0.307116 0 
-0.44462 -0.281635 0 -0.429263 -0.267443 0 -0.42781 -0.290535 0 
-0.453679 -0.298836 0 -0.411469 -0.27533 0 -0.39759 -0.29074 0 
-0.389628 -0.270568 0 -0.411855 -0.299805 0 -0.37225 -0.273655 0 
-0.362615 -0.293432 0 -0.379526 -0.295843 0 -0.353531 -0.273215 0 
-0.335999 -0.285595 0 -0.324148 -0.270282 0 -0.318478 -0.295528 0 
-0.345588 -0.300589 0 -0.607843 -0.254902 0 -0.588235 -0.254902 0 
-0.607843 -0.235294 0 -0.588235 -0.235294 0 -0.568627 -0.254902 0 
-0.54902 -0.254902 0 -0.568627 -0.235294 0 -0.54902 -0.235294 0 
-0.529412 -0.254902 0 -0.509804 -0.254902 0 -0.529412 -0.235294 0 
-0.509804 -0.235294 0 -0.482798 -0.263475 0 -0.463746 -0.258371 0 
-0.47903 -0.246129 0 -0.494604 -0.238309 0 -0.448982 -0.26179 0 
-0.441261 -0.243636 0 -0.461747 -0.233542 0 -0.428862 -0.233091 0 
-0.401251 -0.25626 0 -0.418932 -0.251965 0 -0.409124 -0.232245 0 
-0.392967 -0.228789 0 -0.383475 -0.247353 0 -0.367494 -0.253311 0 
-0.354281 -0.241422 0 -0.342397 -0.260373 0 -0.33634 -0.241072 0 
-0.317775 -0.253665 0 -0.310814 -0.239755 0 -0.607843 -0.215686 0 
-0.588235 -0.215686 0 -0.607843 -0.196078 0 -0.588235 -0.196078 0 
-0.568627 -0.215686 0 -0.54902 -0.215686 0 -0.568627 -0.196078 0 
-0.54902 -0.196078 0 -0.529412 -0.215686 0 -0.509804 -0.215686 0 
-0.529412 -0.196078 0 -0.509804 -0.196078 0 -0.474032 -0.221207 0 
-0.465082 -0.206709 0 -0.495696 -0.214138 0 -0.480847 -0.198673 0 
-0.44834 -0.22217 0 -0.42983 -0.209868 0 -0.443535 -0.200963 0 
-0.410112 -0.212889 0 -0.394883 -0.201492 0 -0.417069 -0.193319 0 
-0.375705 -0.227127 0 -0.36017 -0.221145 0 -0.380355 -0.203689 0 
-0.364158 -0.198651 0 -0.327341 -0.224656 0 -0.343481 -0.216352 0 
-0.344496 -0.196748 0 -0.328152 -0.194607 0 -0.315674 -0.21099 0 
-0.607843 -0.176471 0 -0.588235 -0.176471 0 -0.607843 -0.156863 0 
-0.588235 -0.156863 0 -0.568627 -0.176471 0 -0.54902 -0.176471 0 
-0.568627 -0.156863 0 -0.54902 -0.156863 0 -0.529412 -0.176471 0 
-0.509804 -0.176471 0 -0.529412 -0.156863 0 -0.509804 -0.156863 0 
-0.466682 -0.179318 0 -0.486281 -0.183336 0 -0.475769 -0.160998 0 
-0.499027 -0.171239 0 -0.450688 -0.183917 0 -0.429296 -0.18076 0 
-0.44166 -0.165221 0 -0.426803 -0.154838 0 -0.458682 -0.157564 0 
-0.399694 -0.181318 0 -0.412842 -0.167784 0 -0.386702 -0.170012 0 
-0.398468 -0.152145 0 -0.373121 -0.180263 0 -0.353942 -0.177372 0 
-0.365683 -0.15882 0 -0.349325 -0.151589 0 -0.338362 -0.169715 0 
-0.322221 -0.175513 0 -0.309721 -0.157987 0 -0.607843 -0.137255 0 
-0.588235 -0.137255 0 -0.607843 -0.117647 0 -0.588235 -0.117647 0 
-0.568627 -0.137255 0 -0.54902 -0.137255 0 -0.568627 -0.117647 0 
-0.54902 -0.117647 0 -0.529412 -0.137255 0 -0.509804 -0.137255 0 
-0.529412 -0.117647 0 -0.509804 -0.117647 0 -0.471609 -0.140126 0 
-0.490085 -0.146329 0 -0.478861 -0.117505 0 -0.498215 -0.129052 0 
-0.43602 -0.138411 0 -0.452897 -0.135525 0 -0.462022 -0.119007 0 
-0.436595 -0.118585 0 -0.410691 -0.140669 0 -0.4188 -0.123257 0 
-0.388754 -0.130615 0 -0.401661 -0.116745 0 -0.379215 -0.146554 0 
-0.363127 -0.133639 0 -0.371151 -0.118163 0 -0.348816 -0.118662 0 
-0.326083 -0.150613 0 -0.338995 -0.136293 0 -0.309785 -0.13676 0 
-0.323867 -0.122884 0 -0.607843 -0.0980392 0 -0.588235 -0.0980392 0 
-0.607843 -0.0784314 0 -0.588235 -0.0784314 0 -0.568627 -0.0980392 0 
-0.54902 -0.0980392 0 -0.568627 -0.0784314 0 -0.54902 -0.0784314 0 
-0.529412 -0.0980392 0 -0.509804 -0.0980392 0 -0.529412 -0.0784314 0 
-0.509804 -0.0784314 0 -0.481967 -0.102058 0 -0.47543 -0.0779946 0 
-0.495072 -0.0903641 0 -0.442193 -0.102188 0 -0.461816 -0.0975924 0 
-0.425831 -0.0828696 0 -0.448014 -0.0850352 0 -0.387497 -0.105826 0 
-0.419229 -0.100153 0 -0.404988 -0.0916239 0 -0.393607 -0.077539 0 
-0.376014 -0.0911939 0 -0.361836 -0.0985344 0 -0.348323 -0.0864872 0 
-0.336942 -0.106968 0 -0.315633 -0.105543 0 -0.32909 -0.0870698 0 
-0.607843 -0.0588235 0 -0.588235 -0.0588235 0 -0.607843 -0.0392157 0 
-0.588235 -0.0392157 0 -0.568627 -0.0588235 0 -0.54902 -0.0588235 0 
[...]
POINT_DATA 3969
FIELD FieldData 5
id 1 3969 int
161 162 167 168 163 164 169 170 165 
166 171 172 107 108 123 124 109 110 
125 126 111 112 127 128 113 114 129 
130 115 116 131 132 173 174 179 180 
175 176 181 182 177 178 183 184 139 
140 155 156 141 142 157 158 143 144 
159 160 145 146 153 154 147 148 151 
152 185 186 191 192 187 188 193 194 
189 190 195 196 119 120 149 150 117 
118 137 138 105 106 135 136 103 104 
133 134 101 102 121 122 197 198 203 
204 199 200 205 206 201 202 207 208 
1013 1015 1499 2242 1019 1021 1759 2628 1023 
2645 2470 1832 1411 2483 1732 3387 263 771 
1808 2546 54 209 210 215 216 211 212 
217 218 213 214 219 220 2788 1016 1009 
9 623 1779 1780 531 280 1775 1816 62 
1774 1504 1793 770 759 1790 1307 221 222 
227 228 223 224 229 230 225 226 231 
232 622 1803 1529 1798 292 571 1046 610 
632 1665 13 73 1809 791 1683 1276 1076 
1602 1486 85 88 233 234 239 240 235 
236 241 242 237 238 243 244 1794 2487 
1776 2790 390 1646 369 354 33 586 1101 
19 344 1324 503 1043 1252 1519 1265 245 
246 251 252 247 248 253 254 249 250 
255 256 1592 2769 2753 792 1657 2531 320 
570 1395 1129 1088 1109 1151 1153 1266 1275 
1290 1643 407 408 413 414 409 410 415 
416 411 412 417 418 1017 2748 540 614 
1099 1452 1576 260 333 313 1597 556 1305 
1104 1267 1359 1371 1400 1372 1139 419 420 
425 426 421 422 427 428 423 424 429 
430 96 564 611 655 43 1614 1293 1588 
1110 1453 1295 1325 1121 1482 1455 1344 1358 
1362 1329 431 432 437 438 433 434 439 
440 435 436 441 442 1778 1745 86 1058 
1051 1501 554 1135 1118 1599 1496 1373 355 
1423 1346 1555 1572 1374 1345 443 444 449 
450 445 446 451 452 447 448 453 454 
36 2738 1730 1022 330 1084 1640 542 1610 
1147 1261 506 1090 1119 1321 1133 1320 1541 
1441 1539 455 456 461 462 457 458 463 
464 459 460 465 466 612 782 654 1020 
270 1815 781 301 1647 1091 1645 1059 381 
1257 592 1134 1478 1120 1510 1137 467 468 
473 474 469 470 475 476 471 472 477 
478 400 590 1012 520 1782 1560 2806 1092 
1637 1593 1556 1152 1281 1304 1437 1336 1525 
479 480 485 486 481 482 487 488 483 
484 489 490 1725 644 2471 1081 1651 1598 
1830 1323 314 1633 1532 1396 1351 1551 1149 
1394 1136 1258 1512 491 492 493 494 495 
496 7 1143 1018 1618 1763 560 1438 1791 
63 1656 523 534 1483 1365 1140 1253 284 
304 1534 1289 1537 1291 657 658 663 664 
659 660 665 666 661 662 667 668 2674 
312 34 1338 550 396 1611 1688 1521 555 
1689 1108 1616 1586 1282 1489 1262 669 670 
675 676 671 672 677 678 673 674 679 
680 2658 2034 1770 2725 2721 1368 2770 1547 
1543 1264 1639 1506 1087 1063 1369 1070 1565 
1612 1574 681 682 687 688 683 684 689 
690 685 686 691 692 2706 1814 1487 1761 
1813 510 1728 545 1155 55 45 1141 1107 
1123 1430 1399 575 1114 90 693 694 699 
700 695 696 701 702 697 698 703 704 
1622 501 1784 392 1726 2802 2517 1661 1672 
1797 1792 1735 1049 1795 275 30 282 1600 
346 515 705 706 711 712 707 708 713 
714 709 710 715 716 1533 1986 1577 53 
331 302 1738 530 380 66 1590 653 97 
2805 500 760 717 718 723 724 719 720 
725 726 721 722 727 728 646 2 1652 
1729 1 1484 2678 1787 2018 1756 1743 1764 
633 772 1760 1398 1041 1062 44 76 1605 
1566 729 730 735 736 731 732 737 738 
733 734 739 740 1014 4 21 1786 5 
1742 6 581 1769 1054 1680 1749 521 1800 
261 1796 321 38 1549 741 742 747 748 
743 744 749 750 745 746 751 752 31 
41 61 2610 11 1531 1741 1080 512 1767 
1687 1518 1783 1762 48 391 361 98 551 
1801 913 914 919 920 915 916 921 922 
917 918 923 924 257 1693 1677 91 1383 
2580 1620 1664 1650 2564 1675 1723 2547 1746 
532 1744 1765 1772 58 925 926 931 932 
927 928 933 934 929 930 935 936 357 
596 2066 507 547 1098 71 20 594 1033 
1503 8 1038 1563 553 1514 393 1517 1739 
937 938 943 944 939 940 945 946 941 
942 947 948 397 1026 597 647 1128 557 
317 1558 1607 1397 1559 1673 22 1621 514 
10 1578 1488 1035 949 950 955 956 951 
952 957 958 953 954 959 960 577 753 
783 793 527 72 558 348 617 327 627 
537 754 297 587 1028 598 377 1112 517 
51 961 962 967 968 963 964 969 970 
965 966 971 972 774 803 833 843 813 
814 844 773 784 845 823 804 846 847 
764 638 834 848 973 974 979 980 975 
976 981 982 977 978 983 984 859 860 
875 876 861 862 877 878 863 864 879 
880 865 866 881 882 867 868 883 884 
985 986 991 992 987 988 993 994 989 
990 995 996 891 892 907 908 893 894 
909 910 895 896 911 912 897 898 905 
906 899 900 903 904 997 998 1003 1004 
999 1000 1005 1006 1001 1002 1007 1008 871 
872 901 902 869 870 889 890 857 858 
887 888 855 856 885 886 854 874 873 
853 1159 1160 1174 1175 1161 1162 1176 1177 
1163 1164 1178 1179 1165 1166 1180 1181 1167 
1168 1182 1183 1169 1170 1184 1185 1171 1172 
1186 1187 1173 1188 1189 1190 1204 1205 1191 
1192 1206 1207 1193 1194 1208 1209 1195 1196 
1210 1211 1197 1198 1212 1213 1199 1200 1214 
1215 1201 1202 1216 1217 1203 1218 1219 1220 
1234 1235 1221 1222 1236 1237 1223 1224 1238 
1239 1225 1226 1240 1241 1227 1228 1242 1243 
1229 1230 1244 1245 1231 1232 1246 1247 1233 
1248 2728 65 370 2799 1788 621 642 3229 
3374 1748 1818 652 582 1158 2781 1064 1992 
3462 84 2818 559 1810 1308 2715 2795 1833 
1777 3384 2821 519 1126 379 1580 1029 640 
334 574 27 1277 1044 779 584 1069 83 
1608 499 382 271 1658 1591 1737 758 780 
1067 1826 1827 801 2808 14 82 600 359 
768 562 1691 1535 1354 1682 1094 1298 1581 
1381 1093 1674 1148 1296 1596 1425 1095 1292 
375 1073 342 1546 651 1513 339 1306 1096 
802 2796 589 1339 1263 1294 1310 1124 1259 
1138 325 1117 345 1632 1573 1125 1520 89 
522 1089 366 50 552 1642 1516 812 26 
767 403 1127 516 2534 1824 566 1131 1524 
1456 1387 1328 1386 1401 1416 1492 1357 1538 
1554 1102 283 356 285 1567 406 1477 1507 
1409 1628 336 1045 1550 1071 1024 99 1627 
790 799 1717 1343 1431 1317 1348 1341 1569 
1105 1446 1286 1370 1314 1342 1568 1122 1384 
1445 1511 1260 343 1146 1156 1410 265 266 
1648 1100 529 1669 1789 757 1331 1347 1330 
1378 1302 1364 1332 1318 1333 1349 1285 1287 
1415 1271 1301 1327 1315 1603 1625 1540 1144 
376 395 573 303 49 513 1502 2836 259 
290 1375 1493 1432 1360 1377 1363 1392 1376 
1407 1393 1406 1379 1270 1316 1601 1356 1424 
1086 1522 1061 67 1582 524 1353 349 1736 
268 93 399 1417 1509 1389 1447 1361 1391 
1420 1404 1334 1421 1299 1350 1313 1458 1367 
1366 525 1571 1552 335 1663 262 70 509 
620 498 3209 789 1050 1785 1485 1523 1448 
1480 1390 1402 1388 1418 1451 1405 1449 1312 
1429 1380 1585 1337 1355 1594 1116 1280 1718 
2274 329 533 822 64 1561 28 778 3427 
1757 3303 388 1419 1479 1508 1495 1433 1443 
1494 1434 1436 1403 1481 1490 1542 1272 1103 
1570 1553 1322 402 1068 264 12 1106 788 
798 319 1459 1460 3454 1579 1461 1274 1450 
1442 1408 1268 1435 1422 1340 276 1526 1085 
1309 535 363 39 593 1060 1462 1466 1804 
309 307 1463 1464 1467 1468 1465 1469 1150 
1273 1311 1440 1288 1256 1255 1505 1303 1300 
383 1527 405 1251 1587 502 585 78 1641 
549 1470 579 1471 1472 1473 1335 1284 1254 
1491 1319 1474 1326 1414 1249 1352 305 1606 
75 561 504 583 606 528 1694 1695 1699 
1805 800 1696 1697 1700 1701 1698 1702 1269 
1385 1476 1297 1283 1457 1624 1497 326 1557 
1604 1154 1679 316 1536 1055 1056 17 1626 
624 79 1703 1707 1823 777 269 1704 1705 
1708 1709 1706 1710 1428 1475 1609 60 1635 
1075 286 1660 1644 1279 306 1130 386 1615 
77 1584 1721 1589 656 569 1690 518 29 
1711 1712 810 1822 2840 809 1713 811 1828 
1115 505 1631 546 1564 384 1113 394 1048 
544 296 1145 1132 1040 1629 626 1530 401 
1074 602 1053 1036 353 1636 756 299 619 
1862 1843 2830 1820 601 1042 1662 1039 311 
365 374 37 1613 340 565 315 404 46 
56 1382 1617 322 1427 59 1751 615 1595 
373 1684 24 310 1082 2852 819 2827 609 
1841 1079 350 1157 1634 526 364 385 1528 
1250 1444 1562 68 1077 603 1766 1072 625 
595 352 295 2423 1655 298 599 81 497 
832 2831 630 1142 1678 591 576 511 1066 
1575 1111 272 57 635 2578 47 1747 294 
2595 1733 372 100 1638 1011 1083 1649 1025 
588 92 808 1848 1821 797 273 40 643 
87 541 1078 1057 360 1781 634 371 1583 
1544 1548 293 1654 1454 1653 1623 324 536 
1037 1097 267 538 23 300 796 2839 821 
1844 616 274 1715 1716 69 1771 1685 1412 
1754 332 604 1670 563 362 543 1722 1724 
2338 1630 1666 1052 308 42 288 32 650 
578 787 830 1819 2843 1740 605 80 1731 
1755 1659 1686 323 1671 2503 1545 2629 3 
15 1692 1676 1010 18 287 1030 328 378 
755 548 639 766 618 828 2835 820 1840 
1065 1720 1500 1027 1515 1031 1278 1667 1681 
387 1034 52 1047 1032 367 277 567 318 
278 649 568 608 629 776 806 816 817 
818 1838 1845 2841 16 398 25 508 337 
347 607 368 648 338 775 358 637 628 
805 765 786 815 839 840 841 807 831 
842 1835 1836 1852 1842 1839 2850 763 794 
795 850 849 824 835 851 852 785 825 
1849 1850 836 826 1851 837 1853 827 838 
1854 1855 829 1856 1857 1834 1858 1859 1837 
1860 1861 1863 1864 1865 1879 1880 1866 1867 
1881 1882 1868 1869 1883 1884 1870 1871 1885 
1886 1872 1873 1887 1888 1874 1875 1889 1890 
1876 1877 1891 1892 1878 1893 1894 1895 1909 
1910 1896 1897 1911 1912 1898 1899 1913 1914 
1900 1901 1915 1916 1902 1903 1917 1918 1904 
1905 1919 1920 1906 1907 1921 1922 1908 1923 
1924 1925 1939 1940 1926 1927 1941 1942 1928 
1929 1943 1944 1930 1931 1945 1946 1932 1933 
1947 1948 1934 1935 1949 1950 1937 1952 1951 
1936 1953 1938 2114 2115 2130 2131 2116 2117 
2132 2133 2118 2119 2134 2135 2120 2121 2136 
2137 2122 2123 2138 2139 2124 2125 2140 2141 
2126 2127 2142 2143 2128 2129 2144 2145 2146 
2147 2162 2163 2148 2149 2164 2165 2150 2151 
2166 2167 2152 2153 2168 2169 2154 2155 2170 
2171 2156 2157 2172 2173 2158 2159 2174 2175 
2160 2161 2176 2177 2178 2179 2194 2195 2180 
2181 2196 2197 2182 2183 2198 2199 2184 2185 
2200 2201 2186 2187 2202 2203 2188 2189 2204 
2205 2190 2191 2206 2207 2192 2193 2208 2209 
1954 1799 74 2984 281 3348 2743 641 1829 
3388 3406 291 2053 3278 2779 769 3188 3299 
3433 94 3367 2976 2797 2765 3128 2793 2791 
645 1831 2307 351 1758 631 3137 2814 279 
2815 3482 389 3378 2801 3279 1807 3474 2828 
3473 2988 3472 3253 2373 2605 580 3012 2809 
2637 2607 1812 3464 3446 2812 2009 3259 3272 
3157 2651 2998 3369 1439 2816 2592 3255 2455 
3010 1973 2010 2012 3145 2044 3312 3057 2626 
2108 3035 3343 3005 3043 3185 3339 2030 2057 
3042 2046 3044 3245 2656 2086 2544 3269 3334 
2051 2837 2650 2565 3130 3165 2259 3004 3226 
2039 2321 2497 2101 2424 3212 2222 2272 2337 
3195 2089 2375 2221 2490 2572 2106 2223 258 
1980 2418 35 3407 1806 2729 3447 3125 2985 
3284 2757 3133 3282 2574 2112 2496 2342 2096 
2103 2073 2100 2425 2293 2367 2405 2400 2063 
2334 2277 2241 2529 2358 95 1619 2036 2635 
1847 2371 3316 2506 3187 2323 2357 3134 2599 
3292 2403 3204 3132 2421 2494 2456 2314 2297 
2298 2318 2328 2350 2399 2366 2387 2826 3475 
3415 2834 3048 2502 2014 3359 3242 2028 3326 
2016 3213 2262 3244 2557 2308 2521 2302 2282 
2280 2235 2300 2313 2265 2249 2296 2299 2281 
2312 2317 289 2825 3049 2819 3050 3144 1987 
3003 2038 2419 2017 3214 2075 2047 2283 2352 
2336 2401 2250 2285 2310 2218 2295 2343 2311 
2360 2426 2394 2329 2327 2345 3309 3174 3492 
2623 2975 3345 3154 3158 3054 2528 2669 2239 
2829 2555 3183 3015 2301 2234 2368 2284 2248 
2393 2458 2236 2378 2264 2377 2395 2361 2315 
2330 2344 2331 1994 2986 3437 3159 3465 2067 
3398 2972 3483 2563 2763 2625 3135 2266 2510 
2542 2088 2279 2231 2320 2233 2380 2346 2364 
2427 2316 2349 2347 2398 3030 2430 2431 2432 
2433 2434 3160 1989 2643 3389 3267 3034 3246 
2351 3045 2324 2288 2254 2252 2410 2411 2379 
2362 2397 2382 2348 2363 2435 2436 2440 2441 
2437 2438 2442 2443 2439 2444 2618 1846 3060 
3014 3216 3403 2341 2591 3323 2559 2420 2267 
2585 2219 2479 2412 2247 2428 2365 2422 2460 
2413 2381 2429 2445 2446 2447 2448 2449 3352 
2772 2020 2359 2275 2319 2005 2384 2511 2566 
2416 2353 2326 2294 2396 2489 2459 2278 2461 
2476 2680 2681 2686 2687 2682 2683 2688 2689 
2684 2685 2690 3456 3169 3349 3227 2226 2718 
2271 2060 2113 2229 2102 2292 2303 2526 2255 
2286 2107 2069 2253 2404 2402 2237 2691 2692 
2696 2697 2693 2694 2698 2699 2695 2700 2824 
2983 3289 1965 2099 3276 2407 3262 2577 2062 
2602 2214 2335 2369 2055 2586 2589 2251 2105 
1825 2701 2702 2705 2832 3484 2817 2703 2704 
3139 3476 2973 2535 3205 2670 2029 3365 2007 
3233 2025 2211 3126 2537 3236 2408 2061 2087 
2571 2505 3002 3274 3324 2268 3222 2064 3485 
3438 2833 3189 3466 3221 1976 3140 2616 3206 
2659 2649 2762 3297 3393 2004 3016 2582 2463 
3153 3235 2071 3202 2049 2385 2245 2059 2225 
2570 2048 3178 3457 3280 3199 3495 2339 2019 
2987 2673 3175 2609 3176 3375 2759 1997 3337 
3287 2575 2545 2244 2097 2289 3332 2080 2556 
2072 2230 2085 3184 2065 3224 3170 3408 3496 
2978 1981 2002 1974 2485 2486 2033 3053 3275 
3207 3217 2746 3423 3024 3193 2766 3037 2256 
2023 2603 3052 3006 3313 3172 3152 2604 2608 
2257 3329 3179 3502 3310 3477 3009 1990 2549 
3304 3190 3335 2666 3382 2498 3286 2466 2737 
2719 2011 3422 2013 572 3019 3394 2993 2820 
3026 2037 3046 2543 2536 3396 3379 3493 3219 
1985 1977 3180 2468 2619 2452 2488 2484 3196 
3336 2642 2749 3366 3376 2751 3395 3356 2747 
3166 1964 3177 1995 2773 2764 3307 1719 2022 
3355 3494 3428 3399 2862 3419 3281 2999 3311 
2990 2655 1982 2981 2667 2630 2516 2451 2515 
3266 3354 3306 2787 2778 2716 3412 2774 2050 
2735 3247 2771 2745 3486 2845 3448 3300 3400 
3250 3230 2356 3261 3181 1975 2639 2354 2962 
2653 2713 3302 3344 2730 3021 2597 3392 2648 
3372 2641 2594 3373 2707 3402 2514 2499 2847 
2846 3506 3504 3467 3487 3370 3320 3409 3390 
3449 3000 3360 3301 3168 2989 3161 3171 3330 
3210 2969 3191 1413 2003 2726 3131 2390 3285 
2646 1972 2624 3051 2615 2842 2856 2844 2849 
3497 3513 3498 3478 3458 3505 3439 3468 3499 
3489 3429 3200 3410 3290 3350 3270 3421 3040 
3251 3271 3430 3240 3151 2851 2838 2853 2848 
2854 2855 3512 3503 2857 2858 3514 2859 3515 
2860 3516 3507 2861 3517 2863 3488 3508 2864 
2865 3518 3509 3522 3523 3469 3519 3510 3524 
3459 3525 2866 2867 2882 2883 2868 2869 2884 
2885 2870 2871 2886 2887 2872 2873 2888 2889 
2874 2875 2890 2891 2876 2877 2892 2893 2878 
2879 2894 2895 2880 2881 2896 2897 2898 2899 
2914 2915 2900 2901 2916 2917 2902 2903 2918 
2919 2904 2905 2920 2921 2906 2907 2922 2923 
2908 2909 2924 2925 2910 2911 2926 2927 2912 
2913 2928 2929 2930 2931 2946 2947 2932 2933 
2948 2949 2934 2935 2950 2951 2936 2937 2952 
2953 2938 2939 2954 2955 2940 2941 2956 2957 
2959 2958 2943 2942 2960 2961 2945 2944 3062 
3063 3078 3079 3064 3065 3080 3081 3066 3067 
3082 3083 3068 3069 3084 3085 3070 3071 3086 
3087 3592 3593 3598 3599 3594 3595 3600 3601 
3596 3597 3602 3603 3094 3095 3110 3111 3096 
3097 3112 3113 3098 3099 3114 3115 3100 3101 
3116 3117 3102 3103 3118 3119 3604 3605 3610 
3611 3606 3607 3612 3613 3608 3609 3614 3615 
3090 3091 3120 3121 3088 3089 3108 3109 3076 
3077 3106 3107 3074 3075 3104 3105 3072 3073 
3092 3093 3616 3617 3622 3623 3618 3619 3624 
3625 3620 3621 3626 3627 1768 1752 2807 2810 
3425 2800 539 2731 1727 2785 3056 2742 2727 
1955 1668 2662 1956 2454 1961 1962 1967 3628 
3629 3634 3635 3630 3631 3636 3637 3632 3633 
3638 3639 2068 3455 2823 2560 3318 3417 3129 
3032 3358 2995 1979 2994 2783 3368 3397 3377 
2644 1959 1957 2710 1968 3640 3641 3646 3647 
3642 3643 3648 3649 3644 3645 3650 3651 3333 
2665 3364 3362 3059 3260 3418 2613 2614 2638 
3149 3215 3319 2811 761 2782 1958 3249 2548 
3652 3653 3658 3659 3654 3655 3660 3661 3656 
3657 3662 3663 2472 2228 3013 2992 3436 3383 
2593 3353 2979 2043 2664 3028 3338 2212 3198 
2082 3424 2098 2963 3664 3665 3670 3671 3666 
3667 3672 3673 3668 3669 3674 3675 2224 2015 
2480 2474 2040 2054 2464 3025 2081 3264 3163 
1811 1983 2243 2045 3416 3443 3442 1498 3676 
3677 3682 3683 3679 3685 3684 3678 3687 3680 
3681 3686 2540 2058 2554 2094 3182 2215 3203 
2270 3164 2406 3296 2391 2567 2636 3223 3138 
1817 2767 2822 3688 3689 3694 3695 3690 3691 
3696 3697 3692 3693 3698 3699 2553 2522 3283 
2333 2415 2240 2091 2077 2273 2600 3237 2261 
2309 2741 3463 2997 2803 2654 2786 1714 3700 
3701 3706 3707 3702 3703 3708 3709 3704 3705 
3710 3711 2541 2525 2332 2325 3192 2539 2246 
2111 2568 2093 3315 2520 3124 3426 3173 3162 
3295 2813 3452 3414 3712 3713 3718 3719 3714 
3715 3720 3721 3716 3717 3722 3723 2383 2414 
2478 2462 2076 2508 2269 2457 2588 2291 2500 
3294 3047 2668 3258 3218 2006 2001 2736 3724 
3725 3730 3731 3726 3727 3732 3733 3728 3729 
3734 3735 2388 2473 2493 2523 2074 2092 2524 
3186 2660 2027 3023 2671 2501 2031 3142 2622 
2776 2732 3736 3737 3742 3743 3738 3739 3744 
3745 3740 3741 3746 3747 2491 2475 2509 2389 
2409 2109 2217 2392 2386 2070 3305 2551 3033 
3022 3363 3254 3445 3435 1960 3146 2768 1970 
3748 3749 3754 3755 3750 3751 3756 3757 3752 
3753 3758 3759 2477 2376 2260 2110 2305 2041 
2026 2581 2213 2583 2552 3147 3122 3444 3148 
3277 1773 3760 3761 3766 3767 3762 3763 3768 
3769 3764 3765 3770 3771 2104 2492 2263 2090 
2216 2340 2606 2238 2504 2032 2569 2558 2532 
2996 3156 3243 3017 1999 2744 2258 3772 3773 
3775 3774 3777 3776 2304 2287 2507 2370 2417 
2232 2465 2587 2579 2640 2527 762 2000 1998 
3434 1802 1753 3778 3779 3784 3785 3780 3781 
3786 3787 3782 3783 3788 3789 3232 2495 2481 
2538 3123 3155 2584 3039 3322 2227 3058 3029 
3298 2550 3038 3385 3036 2780 2754 3790 3791 
3796 3797 3792 3793 3798 3799 3794 3795 3800 
3801 2220 2573 3314 2056 2561 2042 2633 2021 
3027 2008 1991 3234 3208 3386 2708 2355 2777 
2530 2761 2717 3802 3803 3808 3809 3804 3805 
3810 3811 3806 3807 3812 3813 2652 2276 3263 
2083 3342 2513 2095 3018 3225 3453 2601 3308 
3007 3268 3008 3357 1963 2740 2733 2965 3814 
3815 3820 3821 3816 3817 3822 3823 3818 3819 
3824 3825 3194 3293 2079 3273 3143 2784 2576 
3055 3239 2631 3252 3257 2469 1734 2450 2723 
2966 2739 2621 3826 3827 3832 3833 3828 3829 
3834 3835 3830 3831 3836 3837 2798 1993 2024 
3167 341 2794 2374 3256 3328 3248 613 2596 
2792 3327 2967 2970 2971 3838 3839 3844 3845 
3840 3841 3846 3847 3842 3843 3848 3849 2078 
2620 1996 2617 3288 3347 2512 3405 2804 3127 
2775 1426 2755 2982 2677 2632 2533 2712 2968 
2991 3011 3850 3851 3856 3857 3852 3853 3858 
3859 3854 3855 3860 3861 3228 3136 2722 3197 
2750 2758 3432 2752 3404 2290 2714 2084 2661 
2679 2709 3031 3325 3041 3862 3863 3868 3869 
3870 3865 3864 3871 3873 3866 3867 3872 3346 
3413 1750 2724 2612 636 2789 2720 2756 2562 
3317 2482 2977 2964 3001 2734 2467 3201 1969 
3061 3874 3875 3880 3881 3876 3877 3882 3883 
3878 3879 3884 3885 2453 2676 3238 2711 2663 
2760 2657 2306 2647 2672 2210 1971 3211 2322 
3231 3291 2590 3331 3886 3887 3892 3893 3888 
3889 3894 3895 3890 3891 3896 3897 2372 1966 
2598 3265 1988 2519 2627 2611 1984 1978 2634 
2675 2974 2035 3241 3321 3381 2518 3411 3898 
3899 3904 3905 3900 3901 3906 3907 3902 3903 
3908 3909 3391 3341 3340 3020 2052 3401 3420 
3361 3371 3220 3441 3141 3150 3351 3461 2980 
3431 3471 3481 3910 3911 3916 3917 3912 3913 
3918 3919 3914 3915 3920 3921 3526 3479 3480 
3450 3451 3527 3520 3528 3490 3460 3529 3500 
3380 3470 3530 3511 3440 3491 3501 3521 3531 
3922 3923 3928 3929 3924 3925 3930 3931 3926 
3927 3932 3933 3532 3533 3548 3549 3534 3535 
3550 3551 3536 3537 3552 3553 3538 3539 3554 
3555 3540 3541 3556 3557 3934 3935 3940 3941 
3936 3937 3942 3943 3938 3939 3944 3945 3564 
3565 3580 3581 3566 3567 3582 3583 3568 3569 
3584 3585 3570 3571 3586 3587 3572 3573 3588 
3589 3946 3947 3952 3953 3948 3949 3954 3955 
3950 3951 3956 3957 3560 3561 3590 3591 3558 
3559 3578 3579 3546 3547 3576 3577 3544 3545 
3574 3575 3542 3543 3562 3563 3958 3959 3964 
3965 3960 3961 3966 3967 3962 3968 3963 3969 

C_[0] 1 3969 double
0 0 0 0 0 0 0 0 0 
0 0 0 0 0 0 0 0 0 
0 0 0 0 0 0 0 0 0 
0 0 0 0 0 0 0 0 0 
0 0 0 0 0 0 0 0 0 
0 0 0 0 0 0 0 0 0 
0 0 0 0 0 0 0 0 0 
0 0 0 0 0 0 0 0 0 
0 0 0 0 0 0 0 0 0 
0 0 0 0 0 0 0 0 0 
0 0 0 0 0 0 0 0 0 
0 0 0 0 0 0 0 0 0 
0.0014743 0.00293039 0.00833609 0.0173811 0.0124733 0.00556809 0.025464 0.0348794 0.0098546 
0.0232138 0.0162926 0.0500851 0.0134411 0.0162469 0.0478134 0.0658113 0.0304679 0.0692505 
0.0954612 0.0203222 0.0832177 0 0 0 0 0 0 
0 0 0 0 0 0 0.0224587 0.0140455 0.00424499 
0.00805953 0.0359951 0.0371164 0.0590477 0.0570378 0.0562236 0.0859347 0.0899726 0.11983 
0.0839064 0.0999251 0.108712 0.126871 0.152724 0.133275 0.167138 0 0 
0 0 0 0 0 0 0 0 0 