# vtk DataFile Version 3.0
Generated by LAMMPS
ASCII
DATASET POLYDATA
POINTS 3969 float
-0.607843 -0.607843 0 -0.588235 -0.607843 0 -0.607843 -0.588235 0 
-0.588235 -0.588235 0 -0.568627 -0.607843 0 -0.54902 -0.607843 0 
-0.568627 -0.588235 0 -0.54902 -0.588235 0 -0.529412 -0.607843 0 
-0.509804 -0.607843 0 -0.529412 -0.588235 0 -0.509804 -0.588235 0 
-0.490196 -0.607843 0 -0.470588 -0.607843 0 -0.490196 -0.588235 0 
-0.470588 -0.588235 0 -0.45098 -0.607843 0 -0.431373 -0.607843 0 
-0.45098 -0.588235 0 -0.431373 -0.588235 0 -0.411765 -0.607843 0 
-0.392157 -0.607843 0 -0.411765 -0.588235 0 -0.392157 -0.588235 0 
-0.372549 -0.607843 0 -0.352941 -0.607843 0 -0.372549 -0.588235 0 
-0.352941 -0.588235 0 -0.333333 -0.607843 0 -0.313726 -0.607843 0 
-0.333333 -0.588235 0 -0.313726 -0.588235 0 -0.607843 -0.568627 0 
-0.588235 -0.568627 0 -0.607843 -0.54902 0 -0.588235 -0.54902 0 
-0.568627 -0.568627 0 -0.54902 -0.568627 0 -0.568627 -0.54902 0 
-0.54902 -0.54902 0 -0.529412 -0.568627 0 -0.509804 -0.568627 0 
-0.529412 -0.54902 0 -0.509804 -0.54902 0 -0.490196 -0.568627 0 
-0.470588 -0.568627 0 -0.490196 -0.54902 0 -0.470588 -0.54902 0 
-0.45098 -0.568627 0 -0.431373 -0.568627 0 -0.45098 -0.54902 0 
-0.431373 -0.54902 0 -0.411765 -0.568627 0 -0.392157 -0.568627 0 
-0.411765 -0.54902 0 -0.392157 -0.54902 0 -0.372549 -0.568627 0 
-0.352941 -0.568627 0 -0.352941 -0.54902 0 -0.372549 -0.54902 0 
-0.333333 -0.568627 0 -0.313726 -0.568627 0 -0.313726 -0.54902 0 
-0.333333 -0.54902 0 -0.607843 -0.529412 0 -0.588235 -0.529412 0 
-0.607843 -0.509804 0 -0.588235 -0.509804 0 -0.568627 -0.529412 0 
-0.54902 -0.529412 0 -0.568627 -0.509804 0 -0.54902 -0.509804 0 
-0.529412 -0.529412 0 -0.509804 -0.529412 0 -0.529412 -0.509804 0 
-0.509804 -0.509804 0 -0.470588 -0.509804 0 -0.490196 -0.509804 0 
-0.470588 -0.529412 0 -0.490196 -0.529412 0 -0.431373 -0.509804 0 
-0.45098 -0.509804 0 -0.431373 -0.529412 0 -0.45098 -0.529412 0 
-0.392157 -0.509804 0 -0.411765 -0.509804 0 -0.392157 -0.529412 0 
-0.411765 -0.529412 0 -0.352941 -0.509804 0 -0.372549 -0.509804 0 
-0.352941 -0.529412 0 -0.372549 -0.529412 0 -0.313726 -0.509804 0 
-0.333333 -0.509804 0 -0.313726 -0.529412 0 -0.333333 -0.529412 0 
-0.607843 -0.490196 0 -0.588235 -0.490196 0 -0.607843 -0.470588 0 
-0.588235 -0.470588 0 -0.568627 -0.490196 0 -0.54902 -0.490196 0 
-0.568627 -0.470588 0 -0.54902 -0.470588 0 -0.529412 -0.490196 0 
-0.509804 -0.490196 0 -0.529412 -0.470588 0 -0.509804 -0.470588 0 
-0.5 -0.491844 0 -0.480358 -0.49943 0 -0.484534 -0.475076 0 
-0.465952 -0.470061 0 -0.4634 -0.484009 0 -0.455818 -0.497839 0 
-0.442902 -0.476092 0 -0.431864 -0.499963 0 -0.429484 -0.480765 0 
-0.426644 -0.4639 0 -0.413216 -0.493299 0 -0.408262 -0.472146 0 
-0.392037 -0.499608 0 -0.390998 -0.479994 0 -0.369272 -0.496617 0 
-0.381114 -0.466614 0 -0.356537 -0.489657 0 -0.366381 -0.464832 0 
-0.335523 -0.5 0 -0.34885 -0.47373 0 -0.318862 -0.494083 0 
-0.334726 -0.46837 0 -0.32022 -0.472332 0 -0.607843 -0.45098 0 
-0.588235 -0.45098 0 -0.607843 -0.431373 0 -0.588235 -0.431373 0 
-0.568627 -0.45098 0 -0.54902 -0.45098 0 -0.568627 -0.431373 0 
-0.54902 -0.431373 0 -0.529412 -0.45098 0 -0.509804 -0.45098 0 
-0.529412 -0.431373 0 -0.509804 -0.431373 0 -0.47466 -0.452909 0 
-0.489306 -0.444703 0 -0.5 -0.463139 0 -0.5 -0.428558 0 
-0.468261 -0.430947 0 -0.454129 -0.455667 0 -0.451618 -0.433804 0 
-0.436918 -0.447259 0 -0.426088 -0.431962 0 -0.411801 -0.445785 0 
-0.404934 -0.424596 0 -0.397703 -0.453742 0 -0.389512 -0.435668 0 
-0.374622 -0.440326 0 -0.358393 -0.447339 0 -0.344588 -0.440205 0 
-0.329286 -0.447884 0 -0.314378 -0.442898 0 -0.607843 -0.411765 0 
-0.588235 -0.411765 0 -0.607843 -0.392157 0 -0.588235 -0.392157 0 
-0.568627 -0.411765 0 -0.54902 -0.411765 0 -0.568627 -0.392157 0 
-0.54902 -0.392157 0 -0.529412 -0.411765 0 -0.509804 -0.411765 0 
-0.529412 -0.392157 0 -0.509804 -0.392157 0 -0.478834 -0.420077 0 
-0.489713 -0.407716 0 -0.497401 -0.387102 0 -0.474882 -0.384565 0 
-0.466601 -0.395985 0 -0.439922 -0.416351 0 -0.454635 -0.408184 0 
-0.444808 -0.389615 0 -0.429252 -0.397616 0 -0.417133 -0.412414 0 
-0.405856 -0.391147 0 -0.394603 -0.405442 0 -0.367257 -0.420198 0 
-0.379963 -0.409749 0 -0.374809 -0.386692 0 -0.36042 -0.393986 0 
-0.351847 -0.417051 0 -0.334869 -0.421402 0 -0.342892 -0.396729 0 
-0.325256 -0.399228 0 -0.317948 -0.420852 0 -0.607843 -0.372549 0 
-0.588235 -0.372549 0 -0.607843 -0.352941 0 -0.588235 -0.352941 0 
-0.568627 -0.372549 0 -0.54902 -0.372549 0 -0.568627 -0.352941 0 
-0.54902 -0.352941 0 -0.529412 -0.372549 0 -0.509804 -0.372549 0 
-0.529412 -0.352941 0 -0.509804 -0.352941 0 -0.478465 -0.368104 0 
-0.494647 -0.357371 0 -0.463022 -0.359938 0 -0.449689 -0.369744 0 
-0.442747 -0.349475 0 -0.431893 -0.371338 0 -0.426087 -0.34548 0 
-0.417103 -0.378816 0 -0.412766 -0.353982 0 -0.398915 -0.363155 0 
-0.389542 -0.378241 0 -0.379985 -0.356687 0 -0.364352 -0.367908 0 
-0.346667 -0.375513 0 -0.350086 -0.354421 0 -0.330376 -0.35825 0 
-0.327523 -0.3772 0 -0.607843 -0.333333 0 -0.588235 -0.333333 0 
-0.607843 -0.313726 0 -0.588235 -0.313726 0 -0.568627 -0.333333 0 
-0.54902 -0.333333 0 -0.568627 -0.313726 0 -0.54902 -0.313726 0 
-0.529412 -0.333333 0 -0.509804 -0.333333 0 -0.529412 -0.313726 0 
-0.509804 -0.313726 0 -0.478229 -0.342823 0 -0.496822 -0.329291 0 
-0.47954 -0.322116 0 -0.466839 -0.30876 0 -0.463998 -0.335251 0 
-0.446554 -0.330834 0 -0.435347 -0.320993 0 -0.393433 -0.337541 0 
-0.408228 -0.330916 0 -0.417433 -0.316323 0 -0.369669 -0.343968 0 
-0.34927 -0.306966 0 -0.382826 -0.32477 0 -0.36663 -0.318223 0 
-0.353126 -0.332111 0 -0.336087 -0.337251 0 -0.315192 -0.316135 0 
-0.31754 -0.336075 0 -0.335613 -0.315561 0 -0.607843 -0.294118 0 
-0.588235 -0.294118 0 -0.607843 -0.27451 0 -0.588235 -0.27451 0 
-0.568627 -0.294118 0 -0.54902 -0.294118 0 -0.568627 -0.27451 0 
-0.54902 -0.27451 0 -0.529412 -0.294118 0 -0.509804 -0.294118 0 
-0.529412 -0.27451 0 -0.509804 -0.27451 0 -0.48658 -0.280202 0 
-0.467229 -0.277534 0 -0.479389 -0.297641 0 -0.499854 -0.301253 0 
-0.433039 -0.275728 0 -0.451108 -0.279138 0 -0.452979 -0.300651 0 
-0.436448 -0.301048 0 -0.406 -0.280997 0 -0.421687 -0.289695 0 
-0.387637 -0.279688 0 -0.40422 -0.305089 0 -0.389437 -0.303275 0 
-0.374456 -0.271064 0 -0.359255 -0.286989 0 -0.351864 -0.267848 0 
-0.372172 -0.298723 0 -0.328089 -0.273728 0 -0.339758 -0.286917 0 
-0.323007 -0.297972 0 -0.607843 -0.254902 0 -0.588235 -0.254902 0 
-0.607843 -0.235294 0 -0.588235 -0.235294 0 -0.568627 -0.254902 0 
-0.54902 -0.254902 0 -0.568627 -0.235294 0 -0.54902 -0.235294 0 
-0.529412 -0.254902 0 -0.509804 -0.254902 0 -0.529412 -0.235294 0 
-0.509804 -0.235294 0 -0.489507 -0.262325 0 -0.472392 -0.256648 0 
-0.499896 -0.244451 0 -0.463727 -0.244431 0 -0.449998 -0.257798 0 
-0.433123 -0.2532 0 -0.44126 -0.232378 0 -0.415721 -0.262335 0 
-0.398528 -0.260013 0 -0.420746 -0.238699 0 -0.4038 -0.238197 0 
-0.388794 -0.232637 0 -0.381018 -0.251056 0 -0.36362 -0.250783 0 
-0.366597 -0.228814 0 -0.349278 -0.234592 0 -0.341148 -0.253936 0 
-0.327464 -0.23318 0 -0.322317 -0.253163 0 -0.607843 -0.215686 0 
-0.588235 -0.215686 0 -0.607843 -0.196078 0 -0.588235 -0.196078 0 
-0.568627 -0.215686 0 -0.54902 -0.215686 0 -0.568627 -0.196078 0 
-0.54902 -0.196078 0 -0.529412 -0.215686 0 -0.509804 -0.215686 0 
-0.529412 -0.196078 0 -0.509804 -0.196078 0 -0.466292 -0.226532 0 
-0.477404 -0.221169 0 -0.490831 -0.216302 0 -0.471123 -0.191556 0 
-0.499719 -0.201641 0 -0.44726 -0.216445 0 -0.427265 -0.218985 0 
-0.44019 -0.199132 0 -0.458655 -0.194918 0 -0.402448 -0.213908 0 
-0.41444 -0.20442 0 -0.391283 -0.198069 0 -0.379381 -0.214036 0 
-0.357235 -0.210435 0 -0.370586 -0.195143 0 -0.311774 -0.22822 0 
-0.339173 -0.216974 0 -0.336826 -0.196576 0 -0.320631 -0.206842 0 
-0.607843 -0.176471 0 -0.588235 -0.176471 0 -0.607843 -0.156863 0 
-0.588235 -0.156863 0 -0.568627 -0.176471 0 -0.54902 -0.176471 0 
-0.568627 -0.156863 0 -0.54902 -0.156863 0 -0.529412 -0.176471 0 
-0.509804 -0.176471 0 -0.529412 -0.156863 0 -0.509804 -0.156863 0 
-0.479679 -0.180976 0 -0.475968 -0.164428 0 -0.495202 -0.16528 0 
-0.426552 -0.186164 0 -0.444795 -0.176208 0 -0.454971 -0.165385 0 
-0.426445 -0.164714 0 -0.40925 -0.182199 0 -0.392549 -0.177844 0 
-0.409899 -0.15828 0 -0.392285 -0.156306 0 -0.353463 -0.187512 0 
-0.374221 -0.174431 0 -0.356842 -0.166886 0 -0.374759 -0.153279 0 
-0.335297 -0.176549 0 -0.315896 -0.17948 0 -0.344959 -0.153316 0 
-0.325414 -0.160956 0 -0.607843 -0.137255 0 -0.588235 -0.137255 0 
-0.607843 -0.117647 0 -0.588235 -0.117647 0 -0.568627 -0.137255 0 
-0.54902 -0.137255 0 -0.568627 -0.117647 0 -0.54902 -0.117647 0 
-0.529412 -0.137255 0 -0.509804 -0.137255 0 -0.529412 -0.117647 0 
-0.509804 -0.117647 0 -0.468811 -0.144713 0 -0.486053 -0.141318 0 
-0.486597 -0.127661 0 -0.463741 -0.115554 0 -0.431603 -0.147572 0 
-0.45113 -0.14727 0 -0.434142 -0.127173 0 -0.455168 -0.126061 0 
-0.414903 -0.136423 0 -0.397252 -0.135718 0 -0.420867 -0.114862 0 
-0.398021 -0.115176 0 -0.361769 -0.141836 0 -0.380674 -0.12878 0 
-0.367199 -0.118371 0 -0.348284 -0.125842 0 -0.335514 -0.136317 0 
-0.317067 -0.142941 0 -0.32172 -0.117597 0 -0.607843 -0.0980392 0 
-0.588235 -0.0980392 0 -0.607843 -0.0784314 0 -0.588235 -0.0784314 0 
-0.568627 -0.0980392 0 -0.54902 -0.0980392 0 -0.568627 -0.0784314 0 
-0.54902 -0.0784314 0 -0.529412 -0.0980392 0 -0.509804 -0.0980392 0 
-0.529412 -0.0784314 0 -0.509804 -0.0784314 0 -0.497688 -0.112234 0 
-0.465801 -0.100186 0 -0.484534 -0.0993426 0 -0.464808 -0.0810599 0 
-0.491679 -0.0826451 0 -0.438583 -0.106465 0 -0.437093 -0.0923812 0 
-0.447551 -0.0792891 0 -0.409747 -0.0989906 0 -0.415787 -0.0829637 0 
-0.392557 -0.0861038 0 -0.384509 -0.10368 0 -0.354444 -0.1035 0 
-0.368465 -0.0919883 0 -0.376706 -0.0740455 0 -0.345372 -0.08296 0 
-0.336328 -0.106478 0 -0.323989 -0.093178 0 -0.311819 -0.0826179 0 
-0.607843 -0.0588235 0 -0.588235 -0.0588235 0 -0.607843 -0.0392157 0 
-0.588235 -0.0392157 0 -0.568627 -0.0588235 0 -0.54902 -0.0588235 0 
[...]
POINT_DATA 3969
FIELD FieldData 5
id 1 3969 int
161 162 167 168 163 164 169 170 165 
166 171 172 107 108 123 124 109 110 
125 126 111 112 127 128 113 114 129 
130 115 116 131 132 173 174 179 180 
175 176 181 182 177 178 183 184 139 
140 155 156 141 142 157 158 143 144 
159 160 145 146 153 154 147 148 151 
152 185 186 191 192 187 188 193 194 
189 190 195 196 119 120 149 150 117 
118 137 138 105 106 135 136 103 104 
133 134 101 102 121 122 197 198 203 
204 199 200 205 206 201 202 207 208 
1013 1015 1499 2242 1019 1021 2628 1023 2645 
1732 2470 771 1411 54 2483 2799 263 621 
2546 642 2728 3229 1818 209 210 215 216 
211 212 217 218 213 214 219 220 2788 
1016 1009 9 1779 1759 280 1832 3387 1808 
1029 65 334 27 779 83 499 1658 221 
222 227 228 223 224 229 230 225 226 
231 232 623 622 1803 1780 531 1504 1774 
770 1790 519 640 574 584 1044 1069 1674 
1608 382 1596 1095 1425 233 234 239 240 
235 236 241 242 237 238 243 244 292 
1798 1816 1793 759 1307 1126 379 1580 1682 
1277 1381 1148 1296 1125 1520 89 245 246 
251 252 247 248 253 254 249 250 255 
256 1775 1529 610 1665 62 1809 85 1298 
1354 1691 1093 1632 1581 345 1573 283 285 
356 1102 407 408 413 414 409 410 415 
416 411 412 417 418 1794 632 571 2487 
1486 73 1683 1602 1535 562 1124 1094 1259 
1138 1117 1357 325 1446 1538 1554 419 420 
425 426 421 422 427 428 423 424 429 
430 1776 1046 1592 13 791 1076 1276 1339 
1310 88 1263 1294 1401 1492 1386 1416 1105 
1569 1286 431 432 437 438 433 434 439 
440 435 436 441 442 1646 2790 614 390 
1017 586 1043 344 354 1265 1519 1131 1387 
1328 1456 1332 1341 1348 1302 443 444 449 
450 445 446 451 452 447 448 453 454 
369 2531 2753 503 19 33 1324 1252 1643 
1151 1290 1317 1524 1431 1275 1331 1330 1343 
1347 455 456 461 462 457 458 463 464 
459 460 465 466 2769 96 655 260 1101 
792 1657 320 1109 1153 1129 1266 1372 1139 
1371 1400 1362 1329 1346 467 468 473 474 
469 470 475 476 471 472 477 478 1022 
2748 86 564 1058 1395 570 540 1088 556 
1267 1104 1344 1359 1305 1455 1358 1555 1572 
479 480 485 486 481 482 487 488 483 
484 489 490 1778 782 1020 2738 611 1099 
43 1293 1576 313 333 1482 1597 1121 1496 
1373 1423 1321 491 492 493 494 495 496 
654 1012 7 1745 1614 36 1051 1730 1452 
1453 1588 1110 1325 1295 1118 1135 506 355 
1133 1119 657 658 663 664 659 660 665 
666 661 662 667 668 1018 400 1725 1610 
612 554 330 1640 1084 1501 542 1261 1599 
1147 1090 1092 1645 381 669 670 675 676 
671 672 677 678 673 674 679 680 644 
1763 2471 1143 312 781 590 1782 1081 1815 
270 520 301 1647 1091 1637 1593 1059 1556 
1551 681 682 687 688 683 684 689 690 
685 686 691 692 2674 1618 34 2034 1598 
560 63 2806 1560 1651 1830 1791 1323 1633 
1656 523 314 1140 1532 534 693 694 699 
700 695 696 701 702 697 698 703 704 
2706 2725 1487 1622 550 2658 2721 2770 1438 
396 1368 1338 1611 1483 555 1689 1521 1087 
705 706 711 712 707 708 713 714 709 
710 715 716 1770 1814 1784 501 1726 1761 
1728 1547 1813 545 1688 1543 1639 1155 55 
1264 1063 1107 717 718 723 724 719 720 
725 726 721 722 727 728 1577 2 1 
2517 392 1533 53 510 2802 1661 1797 1735 
1672 1792 530 45 1049 1795 282 729 730 
735 736 731 732 737 738 733 734 739 
740 646 1652 1729 21 1986 1738 302 2678 
331 380 1787 1590 1484 1764 66 1743 633 
97 1760 1041 1062 741 742 747 748 743 
744 749 750 745 746 751 752 1014 4 
31 61 2018 1786 5 6 1756 1742 1769 
1680 772 581 1054 1800 261 1749 913 914 
919 920 915 916 921 922 917 918 923 
924 257 1677 91 2610 41 1664 1741 1531 
11 512 1518 1767 1783 532 1687 1080 391 
361 48 1762 925 926 931 932 927 928 
933 934 929 930 935 936 1693 357 596 
507 1620 2580 1383 71 1650 1723 1098 2564 
594 1675 1503 8 1746 1038 2547 937 938 
943 944 939 940 945 946 941 942 947 
948 2066 547 1026 597 397 1128 317 20 
1558 1607 1559 1033 1397 1673 22 514 1514 
1563 1621 1578 949 950 955 956 951 952 
957 958 953 954 959 960 647 577 753 
783 793 557 527 72 348 617 327 627 
537 297 587 598 1028 10 377 1112 961 
962 967 968 963 964 969 970 965 966 
971 972 774 803 833 558 843 813 814 
844 773 784 845 754 823 804 846 847 
764 834 848 973 974 979 980 975 976 
981 982 977 978 983 984 859 860 875 
876 861 862 877 878 863 864 879 880 
865 866 881 882 867 868 883 884 985 
986 991 992 987 988 993 994 989 990 
995 996 891 892 907 908 893 894 909 
910 895 896 911 912 897 898 905 906 
899 900 903 904 997 998 1003 1004 999 
1000 1005 1006 1001 1002 1007 1008 871 872 
901 902 869 870 889 890 857 858 887 
888 855 856 885 886 874 853 873 854 
1159 1160 1174 1175 1161 1162 1176 1177 1163 
1164 1178 1179 1165 1166 1180 1181 1167 1168 
1182 1183 1169 1170 1184 1185 1171 1172 1186 
1187 1173 1188 1189 1190 1204 1205 1191 1192 
1206 1207 1193 1194 1208 1209 1195 1196 1210 
1211 1197 1198 1212 1213 1199 1200 1214 1215 
1201 1202 1216 1217 1203 1218 1219 1220 1234 
1235 1221 1222 1236 1237 1223 1224 1238 1239 
1225 1226 1240 1241 1227 1228 1242 1243 1229 
1230 1244 1245 1231 1232 1246 1247 1233 1248 
370 652 1788 1158 3374 1064 3462 84 1748 
582 780 1826 2781 559 1308 1992 2818 801 
2795 1810 2808 1833 82 339 2715 2821 600 
1096 1777 3384 768 271 1737 1591 375 758 
1073 1642 1067 342 812 767 651 1306 1827 
1513 1127 14 26 403 516 1024 589 1717 
1824 790 802 1100 2796 2534 566 522 1292 
366 50 1516 1546 1507 336 1260 1628 1045 
1156 1146 1550 1410 1627 266 1071 49 376 
99 1648 513 303 265 757 1502 799 1669 
259 2836 552 1567 1089 1477 406 1445 1409 
343 1511 1540 1315 1144 1625 395 1086 1522 
1061 1582 1366 573 67 335 1663 262 1353 
524 1736 509 268 349 289 1342 1568 1122 
1415 1327 1301 1603 1316 1356 1424 1313 525 
1367 1380 1571 1552 1594 1718 1280 1116 1103 
70 620 2274 498 533 399 789 2819 1050 
1314 1370 1285 1384 1287 1271 1270 1379 1601 
1350 1299 1458 1585 1429 1355 1337 1553 1570 
1085 1542 1322 1309 535 264 329 402 39 
1068 1485 28 3309 1785 822 1349 1318 1333 
1407 1393 1406 1334 1421 1451 1449 1405 1312 
1490 1481 1340 1272 276 405 1526 363 78 
502 1251 583 1060 593 1804 3209 1106 1561 
3303 1364 1392 1378 1377 1376 1420 1391 1404 
1403 1390 1436 1418 1422 1303 1434 1300 1527 
1587 383 1606 561 75 606 1641 798 585 
549 12 778 788 1363 1375 1360 1432 1389 
1447 1361 1402 1448 1388 1494 1408 1433 1435 
1268 1505 1256 1414 1249 305 316 1352 504 
1536 624 1055 79 1056 528 1626 579 309 
64 800 1493 1417 1509 1345 1523 1508 1480 
1443 1442 1495 1288 1557 1255 1604 1679 1615 
1721 77 269 1589 1690 1823 569 1805 777 
17 307 319 3454 1539 1441 1478 1374 1137 
1510 1479 1419 1336 1274 1450 1311 1440 1474 
1154 1326 386 1497 656 1530 1584 1053 518 
29 1459 1460 1757 1579 1461 1541 1320 1120 
1437 1525 1394 1512 1273 1335 1150 1319 1624 
1279 1130 626 1036 401 1462 1466 1463 1464 
1467 1468 1465 1469 1257 1134 1281 1304 1136 
1289 1534 1254 1283 1457 1284 326 306 1132 
1040 1074 299 602 353 1822 1470 810 1471 
1472 1473 1149 1351 1152 592 1537 1258 1291 
1282 1365 1491 1269 1075 1476 1660 286 1644 
1629 296 1382 1636 59 1694 1695 1699 809 
2840 756 1696 1697 1700 1701 1698 1702 1396 
1253 1262 284 1489 1612 1385 1635 1113 1145 
544 56 315 1427 615 1595 24 1703 1707 
811 1843 1704 1705 1708 1709 1706 1710 304 
1616 1506 1586 1565 1574 1430 1297 1475 60 
1609 394 1564 1048 565 404 1751 1617 1684 
322 625 619 373 1082 310 1820 1711 1712 
1862 1828 819 1713 2830 1108 1070 575 1369 
90 1428 505 546 1631 384 365 37 374 
46 340 1444 1077 1072 603 295 2423 352 
81 298 599 609 497 630 2852 1841 832 
2831 1114 1141 1123 1399 515 1600 1115 601 
1662 311 364 1613 1250 1562 385 1528 68 
595 1766 2595 47 1655 372 1011 1638 1025 
1649 808 1848 588 3502 275 653 346 30 
2805 500 760 1042 350 1039 1157 1634 526 
511 272 57 635 1747 2578 294 1733 100 
1653 1623 92 1083 23 1037 1821 797 2839 
1398 44 76 1566 1605 1079 1678 591 576 
1575 1066 1111 634 1544 1583 293 1654 1454 
536 324 267 300 1097 1844 538 821 796 
3493 521 321 1796 1549 38 40 1142 643 
87 1078 1057 360 1685 1781 371 332 1548 
604 563 362 1722 1724 2338 1630 1052 42 
32 308 578 1819 2843 650 830 787 58 
1801 551 98 1744 273 274 541 616 1716 
1771 69 1412 1754 2629 2503 1670 543 15 
1676 1666 1030 18 378 288 548 639 2835 
820 553 1765 393 1772 1739 1715 1731 80 
1740 1755 1659 1686 323 1671 1545 3 1032 
1692 1010 287 328 278 629 755 618 816 
806 766 828 1840 1838 2841 818 1065 1517 
1488 1035 1027 605 1500 1720 1515 1031 1278 
1667 1681 387 1034 52 1047 367 277 567 
318 568 649 608 815 776 817 807 1845 
1852 2842 25 51 638 517 398 16 508 
337 607 347 368 648 775 338 358 637 
628 805 765 786 839 840 841 831 842 
1836 1835 1842 1839 2850 763 794 850 849 
795 824 851 835 852 785 1849 825 1850 
836 1851 826 837 1853 827 1854 838 1855 
829 1857 1856 1834 1858 1859 1837 1860 1861 
1863 1864 1865 1879 1880 1866 1867 1881 1882 
1868 1869 1883 1884 1870 1871 1885 1886 1872 
1873 1887 1888 1874 1875 1889 1890 1876 1877 
1891 1892 1878 1893 1894 1895 1909 1910 1896 
1897 1911 1912 1898 1899 1913 1914 1900 1901 
1915 1916 1902 1903 1917 1918 1904 1905 1919 
1920 1906 1907 1921 1922 1908 1923 1924 1925 
1939 1940 1926 1927 1941 1942 1928 1929 1943 
1944 1930 1931 1945 1946 1932 1933 1947 1948 
1934 1935 1949 1950 1951 1936 1937 1952 1938 
1953 2114 2115 2130 2131 2116 2117 2132 2133 
2118 2119 2134 2135 2120 2121 2136 2137 2122 
2123 2138 2139 2124 2125 2140 2141 2126 2127 
2142 2143 2128 2129 2144 2145 2146 2147 2162 
2163 2148 2149 2164 2165 2150 2151 2166 2167 
2152 2153 2168 2169 2154 2155 2170 2171 2156 
2157 2172 2173 2158 2159 2174 2175 2160 2161 
2176 2177 2178 2179 2194 2195 2180 2181 2196 
2197 2182 2183 2198 2199 2184 2185 2200 2201 
2186 2187 2202 2203 2188 2189 2204 2205 2190 
2191 2206 2207 2192 2193 2208 2209 1954 74 
631 281 1799 2984 2814 2651 3348 3137 1829 
2743 3482 641 3406 3278 389 3388 2779 1807 
291 3433 3367 2053 769 2765 2791 3188 3299 
94 645 351 2998 1439 359 2051 258 279 
3269 3369 2837 1980 3334 2544 2815 1806 2592 
2650 3447 2455 3378 2816 3130 2565 2801 3255 
3279 3010 2012 3474 1973 3473 2828 2988 3253 
3472 529 1619 1789 3415 35 95 3475 3407 
1847 2502 2826 2418 2371 2635 3316 2985 2729 
2036 3125 2259 3133 3284 3165 2757 2010 3004 
3226 3145 2039 3048 2825 93 3049 290 3359 
2834 3050 3003 3242 3144 2419 2038 2014 2017 
3214 3326 2016 2323 2028 3187 3213 2599 3244 
2506 2262 3134 2496 2357 3282 2112 2497 2975 
3174 2623 1987 3054 2829 3345 2528 3015 2563 
2763 2239 2555 2301 3183 2047 2075 2352 2368 
2283 2308 2401 2285 2557 2235 3292 3204 2521 
3132 2100 2403 3154 2067 2669 3398 2972 2625 
3246 3267 3135 3014 2510 3045 2591 2341 2288 
2284 2088 2542 2266 2234 2250 2393 2336 2282 
2280 2218 2302 2494 3492 1989 3483 3158 3034 
3216 3060 2772 3403 2559 2275 2359 3323 2420 
2319 2351 2324 2585 2252 2254 2320 2236 2231 
2458 2248 2310 2394 2279 2300 2249 2265 2313 
3389 3159 3160 2643 2020 3352 2271 2005 2384 
2718 2060 2113 2479 2229 2416 2267 2410 2511 
2219 2233 2427 2379 2411 2426 2264 2395 2380 
2295 2281 2311 2343 3427 2986 1846 2618 3227 
3456 3169 1965 2099 2407 3262 3276 2602 2292 
2526 2353 2102 2566 2303 2346 2412 2362 2247 
2378 2377 2347 2364 2360 2327 2330 388 1994 
3465 2226 2983 3289 2029 3365 2577 3205 2670 
2062 2214 2025 3233 2396 2255 2326 2069 2294 
2397 2428 2413 2381 2348 2349 2363 2316 2345 
2361 2315 2344 2331 3437 3030 2430 2431 2432 
2433 2434 2973 3349 2824 2535 3476 2007 3126 
2335 2107 2408 2369 2286 2460 2461 2365 2422 
2382 2398 2493 2478 2462 2388 2435 2436 2440 
2441 2437 2438 2442 2443 2439 2444 2616 3221 
2762 2211 3206 2537 3016 2571 2055 2061 2459 
2489 2476 2253 2429 2389 2509 2477 2414 2491 
2473 2523 2475 2445 2446 2447 2448 2449 3139 
2817 1976 3393 2659 3297 3236 2004 2505 2463 
2404 2586 2402 2251 2278 2376 2492 2409 2392 
2524 2680 2681 2686 2687 2682 2683 2688 2689 
2684 2685 2690 3140 3484 3466 2649 3176 3337 
2087 3235 2582 2589 2237 3002 2105 2263 2090 
2104 2507 2217 2110 2340 2260 2109 2691 2692 
2696 2697 2693 2694 2698 2699 2695 2700 3189 
3438 2673 3375 2609 3202 3153 2244 3222 2268 
2385 3274 2304 2287 3232 2216 2386 2238 2305 
2701 2702 2705 3485 2833 3457 2832 1825 2703 
2704 3280 3178 2339 2019 2002 2485 3053 3175 
1997 2759 3287 2575 2071 2545 2097 2049 2245 
2059 2570 2064 2220 2495 2606 2370 2232 2538 
2504 2827 3495 3408 3170 3199 2987 2978 1981 
2486 2033 3275 3207 3193 3423 3332 2080 2289 
2048 2072 2225 3324 2276 3314 2573 2056 2417 
2481 2561 3155 3496 3179 3329 3009 1974 3304 
1990 2746 3335 2498 2737 3217 3024 2766 3037 
2023 2256 3052 3006 2556 2230 2065 2085 3184 
3263 2083 2652 2633 2042 2513 3310 3477 3190 
3379 2666 2549 2468 1977 3286 3382 2466 2719 
2011 2013 3422 2603 3019 2993 3313 572 3172 
2608 3224 3026 3293 2257 3152 2079 2095 3342 
3273 3194 3219 1985 3494 3180 3428 2619 2488 
2452 2484 3336 3196 2642 3376 3395 3366 2747 
3394 2820 3177 3396 2543 2604 2536 3046 1993 
2078 2798 2576 341 3167 2024 3281 3399 2862 
2999 2990 2655 3311 1982 2667 2630 2451 2749 
3266 2751 3356 3166 2787 1964 1995 2773 2764 
3355 2037 1719 3228 2512 1996 2620 3288 3419 
3486 3300 3448 2356 3250 2981 3230 2639 2354 
3181 2516 2713 2515 2730 3354 3306 3372 2778 
2716 3412 2774 2050 3307 2771 3247 2022 2745 
3136 3413 2722 2758 2724 2845 2847 3506 3400 
3370 3409 3261 3000 1975 3301 2962 2653 3021 
3344 3302 2597 3392 2648 2726 2641 2594 3373 
2707 3402 2514 2499 2735 1750 2676 2453 3346 
2846 3504 3467 3487 3320 3390 3449 3360 3458 
2989 3168 3330 3161 3200 3171 3210 2969 3191 
1413 2003 2390 3131 3285 1972 3051 2624 2615 
2372 2646 1966 2598 2856 2844 2849 3497 3513 
3498 3512 3478 3505 3439 3468 3499 3489 3429 
3410 3290 3350 3270 3040 3421 3251 3430 3151 
3240 3341 3391 3271 2851 2838 2853 2848 2854 
2855 3503 2857 3514 2858 2859 3515 3516 2860 
3507 2861 3517 3488 2863 3508 2864 3518 2865 
3509 3469 3522 3523 3519 3459 3510 3524 3525 
3479 2866 2867 2882 2883 2868 2869 2884 2885 
2870 2871 2886 2887 2872 2873 2888 2889 2874 
2875 2890 2891 2876 2877 2892 2893 2878 2879 
2894 2895 2880 2881 2896 2897 2898 2899 2914 
2915 2900 2901 2916 2917 2902 2903 2918 2919 
2904 2905 2920 2921 2906 2907 2922 2923 2908 
2909 2924 2925 2910 2911 2926 2927 2912 2913 
2928 2929 2930 2931 2946 2947 2932 2933 2948 
2949 2934 2935 2950 2951 2936 2937 2952 2953 
2938 2939 2954 2955 2940 2941 2956 2957 2959 
2958 2943 2942 2961 2944 2945 2960 3062 3063 
3078 3079 3064 3065 3080 3081 3066 3067 3082 
3083 3068 3069 3084 3085 3070 3071 3086 3087 
3592 3593 3598 3599 3594 3595 3600 3601 3596 
3597 3602 3603 3094 3095 3110 3111 3096 3097 
3112 3113 3098 3099 3114 3115 3100 3101 3116 
3117 3102 3103 3118 3119 3604 3605 3610 3611 
3606 3607 3612 3613 3608 3609 3614 3615 3090 
3091 3120 3121 3088 3089 3108 3109 3076 3077 
3106 3107 3074 3075 3104 3105 3072 3073 3092 
3093 3616 3617 3622 3623 3618 3619 3624 3625 
3620 3621 3626 3627 1752 1758 2797 2976 3128 
2793 1831 1768 2731 3425 2807 1727 2742 2785 
2727 1955 1956 1668 2454 1961 1962 1967 3628 
3629 3634 3635 3630 3631 3636 3637 3632 3633 
3638 3639 2809 2605 580 2373 2637 3464 2812 
2307 3272 2810 2800 3318 539 3056 2662 2644 
2710 1968 3640 3641 3646 3647 3642 3643 3648 
3649 3644 3645 3650 3651 3312 3035 2044 3057 
3012 2607 1812 3259 2823 3446 2009 2783 2068 
2995 3368 1959 3377 1957 1958 3652 3653 3658 
3659 3654 3655 3660 3661 3656 3657 3662 3663 
2108 2101 2321 2574 2626 3212 3343 3005 3043 
3185 3157 3339 2046 3032 2560 3358 3397 2994 
2782 2548 3664 3665 3670 3671 3666 3667 3672 
3673 3668 3669 3674 3675 2424 2096 2342 2073 
2222 2272 3195 2030 2656 2057 3455 3417 3333 
3129 1979 3319 2082 2963 3676 3677 3682 3683 
3678 3679 3685 3684 3680 3687 3681 3686 2367 
2456 2103 2421 2425 2293 2490 2089 2337 3044 
2086 3042 3245 2665 2614 3260 3215 3362 3338 
761 2098 3249 3688 3689 3694 3695 3690 3691 
3696 3697 3692 3693 3698 3699 2400 2297 2314 
2405 2375 2063 2221 3364 2106 2572 3059 3418 
3149 3442 2811 1498 3700 3701 3706 3707 3702 
3703 3708 3709 3704 3705 3710 3711 2298 2318 
2328 2299 2296 2334 2277 2358 2350 2529 2992 
2472 2223 3013 2638 2613 3436 2979 3353 3424 
3028 3198 2767 3712 3713 3718 3719 3714 3715 
3720 3721 3716 3717 3722 3723 2366 2312 2317 
2241 2474 2399 2224 2228 2015 2043 3383 2212 
2593 3416 1817 3443 3724 3725 3730 3731 3726 
3727 3732 3733 3728 3729 3734 3735 2329 2415 
2333 2522 2554 2387 2058 2540 2040 2480 2464 
2270 2664 2054 3264 2081 2654 1811 2243 1714 
3414 3736 3737 3742 3743 3738 3739 3744 3745 
3740 3741 3746 3747 2332 2541 2525 2383 2094 
2553 3283 3182 3025 3203 3296 1983 3163 2045 
2822 3223 2001 2736 3748 3749 3754 3755 3750 
3751 3756 3757 3752 3753 3758 3759 2325 2539 
2508 2246 2240 2273 2091 2077 2215 2406 2600 
3164 2391 2636 2803 2567 3138 2786 2732 1960 
3760 3761 3766 3767 3762 3763 3768 3769 3764 
3765 3770 3771 2111 2457 2092 2269 2076 3192 
2093 2520 2568 3237 2309 2261 2997 2741 3463 
3426 2813 1970 3452 3218 2768 3773 3772 3775 
3774 3777 3776 3023 2074 3186 2588 2291 3315 
3294 3162 3173 3124 3047 2622 3295 2258 2776 
3277 2006 3778 3779 3784 3785 3780 3781 3786 
3787 3782 3783 3788 3789 3305 2660 2581 3033 
2070 2500 2671 2027 2668 2501 3142 3022 3258 
2031 3146 3445 3435 1773 3444 1753 3790 3791 
3796 3797 3792 3793 3798 3799 3794 3795 3800 
3801 2026 2032 2551 3363 2041 2213 2552 2583 
3254 3147 3122 1999 3148 3017 3156 2744 1802 
3385 2754 3802 3803 3808 3809 3804 3805 3810 
3811 3806 3807 3812 3813 2558 2465 3123 2587 
2569 2527 2640 2532 2996 2000 1998 3434 3243 
762 2780 3036 2708 2530 3814 3815 3820 3821 
3816 3817 3822 3823 3818 3819 3824 3825 2584 
3322 2021 3027 2579 3039 2227 3058 3029 2550 
3234 3298 2355 3038 3208 2761 2777 2717 2965 
2740 2966 3826 3827 3832 3833 3828 3829 3834 
3835 3830 3831 3836 3837 3225 3018 2784 2008 
1991 2601 3308 3007 3386 3453 3268 3357 3008 
1963 2469 2733 2723 2621 2739 2967 3838 3839 
3844 3845 3840 3841 3846 3847 3842 3843 3848 
3849 3143 2794 3055 3252 3239 2631 3256 3257 
1734 613 2450 2596 3327 2755 2970 2971 2991 
3850 3851 3856 3857 3852 3853 3858 3859 3854 
3855 3860 3861 2374 3347 3197 2617 3328 3248 
3405 3127 2804 2792 2982 1426 2677 2712 2632 
2533 2968 3011 2709 3031 3862 3863 3868 3869 
3871 3870 3865 3864 3867 3873 3866 3872 2789 
2750 3432 3317 2752 3404 2290 2734 2714 2084 
2775 3001 2679 3325 2661 1969 3201 3061 3041 
3874 3875 3880 3881 3876 3877 3882 3883 3878 
3879 3884 3885 636 3238 2711 2612 2760 2756 
2306 2720 2562 2482 2647 2964 2977 1971 3211 
2467 3231 3291 3331 3886 3887 3892 3893 3888 
3889 3894 3895 3890 3891 3896 3897 3265 1988 
2663 2519 2657 2627 2611 1978 2672 2210 1984 
2675 2322 2974 2035 3321 2590 3381 2518 3411 
3898 3899 3904 3905 3900 3901 3906 3907 3902 
3903 3908 3909 3340 3020 3401 2052 3420 3361 
2634 3220 3371 3441 3141 3351 3241 3150 3461 
2980 3431 3471 3481 3910 3911 3916 3917 3912 
3913 3918 3919 3914 3915 3920 3921 3526 3480 
3450 3451 3527 3520 3528 3490 3460 3529 3500 
3380 3470 3530 3511 3440 3491 3501 3521 3531 
3922 3923 3928 3929 3924 3925 3930 3931 3926 
3927 3932 3933 3532 3533 3548 3549 3534 3535 
3550 3551 3536 3537 3552 3553 3538 3539 3554 
3555 3540 3541 3556 3557 3934 3935 3940 3941 
3936 3937 3942 3943 3938 3939 3944 3945 3564 
3565 3580 3581 3566 3567 3582 3583 3568 3569 
3584 3585 3570 3571 3586 3587 3572 3573 3588 
3589 3946 3947 3952 3953 3948 3949 3954 3955 
3950 3951 3956 3957 3560 3561 3590 3591 3558 
3559 3578 3579 3546 3547 3576 3577 3544 3545 
3574 3575 3542 3543 3562 3563 3958 3959 3964 
3965 3960 3961 3966 3967 3969 3962 3968 3963 

C_[0] 1 3969 double
0 0 0 0 0 0 0 0 0 
0 0 0 0 0 0 0 0 0 
0 0 0 0 0 0 0 0 0 
0 0 0 0 0 0 0 0 0 
0 0 0 0 0 0 0 0 0 
0 0 0 0 0 0 0 0 0 
0 0 0 0 0 0 0 0 0 
0 0 0 0 0 0 0 0 0 
0 0 0 0 0 0 0 0 0 
0 0 0 0 0 0 0 0 0 
0 0 0 0 0 0 0 0 0 
0 0 0 0 0 0 0 0 0 
0.00142535 0.00275 0.00910099 0.0183877 0.0123382 0.00636312 0.0253537 0.00824449 0.0260859 
0.0441056 0.0158815 0.046683 0.0117812 0.0449737 0.0178641 0.0725507 0.0337367 0.0848743 
0.0152573 0.07401 0.0281257 0.0942226 0.0929228 0 0 0 0 
0 0 0 0 0 0 0 0 0.0212798 
0.0133786 0.00434629 0.00803546 0.0376191 0.0337111 0.0526689 0.0546678 0.0811641 0.0807779 
0.112613 0.0814205 0.113879 0.12282 0.124423 0.148846 0.146514 0.1683 0 
0 0 0 0 0 0 0 0 0 