# vtk DataFile Version 3.0
Generated by LAMMPS
ASCII
DATASET POLYDATA
POINTS 3969 float
-0.607843 -0.607843 0 -0.588235 -0.607843 0 -0.607843 -0.588235 0 
-0.588235 -0.588235 0 -0.568627 -0.607843 0 -0.54902 -0.607843 0 
-0.568627 -0.588235 0 -0.54902 -0.588235 0 -0.529412 -0.607843 0 
-0.509804 -0.607843 0 -0.529412 -0.588235 0 -0.509804 -0.588235 0 
-0.490196 -0.607843 0 -0.470588 -0.607843 0 -0.490196 -0.588235 0 
-0.470588 -0.588235 0 -0.45098 -0.607843 0 -0.431373 -0.607843 0 
-0.45098 -0.588235 0 -0.431373 -0.588235 0 -0.411765 -0.607843 0 
-0.392157 -0.607843 0 -0.411765 -0.588235 0 -0.392157 -0.588235 0 
-0.372549 -0.607843 0 -0.352941 -0.607843 0 -0.372549 -0.588235 0 
-0.352941 -0.588235 0 -0.333333 -0.607843 0 -0.313726 -0.607843 0 
-0.333333 -0.588235 0 -0.313726 -0.588235 0 -0.607843 -0.568627 0 
-0.588235 -0.568627 0 -0.607843 -0.54902 0 -0.588235 -0.54902 0 
-0.568627 -0.568627 0 -0.54902 -0.568627 0 -0.568627 -0.54902 0 
-0.54902 -0.54902 0 -0.529412 -0.568627 0 -0.509804 -0.568627 0 
-0.529412 -0.54902 0 -0.509804 -0.54902 0 -0.490196 -0.568627 0 
-0.470588 -0.568627 0 -0.490196 -0.54902 0 -0.470588 -0.54902 0 
-0.45098 -0.568627 0 -0.431373 -0.568627 0 -0.45098 -0.54902 0 
-0.431373 -0.54902 0 -0.411765 -0.568627 0 -0.392157 -0.568627 0 
-0.411765 -0.54902 0 -0.392157 -0.54902 0 -0.372549 -0.568627 0 
-0.352941 -0.568627 0 -0.352941 -0.54902 0 -0.372549 -0.54902 0 
-0.333333 -0.568627 0 -0.313726 -0.568627 0 -0.313726 -0.54902 0 
-0.333333 -0.54902 0 -0.607843 -0.529412 0 -0.588235 -0.529412 0 
-0.607843 -0.509804 0 -0.588235 -0.509804 0 -0.568627 -0.529412 0 
-0.54902 -0.529412 0 -0.568627 -0.509804 0 -0.54902 -0.509804 0 
-0.529412 -0.529412 0 -0.509804 -0.529412 0 -0.529412 -0.509804 0 
-0.509804 -0.509804 0 -0.470588 -0.509804 0 -0.490196 -0.509804 0 
-0.470588 -0.529412 0 -0.490196 -0.529412 0 -0.431373 -0.509804 0 
-0.45098 -0.509804 0 -0.431373 -0.529412 0 -0.45098 -0.529412 0 
-0.392157 -0.509804 0 -0.411765 -0.509804 0 -0.392157 -0.529412 0 
-0.411765 -0.529412 0 -0.352941 -0.509804 0 -0.372549 -0.509804 0 
-0.352941 -0.529412 0 -0.372549 -0.529412 0 -0.313726 -0.509804 0 
-0.333333 -0.509804 0 -0.313726 -0.529412 0 -0.333333 -0.529412 0 
-0.607843 -0.490196 0 -0.588235 -0.490196 0 -0.607843 -0.470588 0 
-0.588235 -0.470588 0 -0.568627 -0.490196 0 -0.54902 -0.490196 0 
-0.568627 -0.470588 0 -0.54902 -0.470588 0 -0.529412 -0.490196 0 
-0.509804 -0.490196 0 -0.529412 -0.470588 0 -0.509804 -0.470588 0 
-0.5 -0.491824 0 -0.4804 -0.499838 0 -0.485486 -0.47352 0 
-0.465462 -0.475928 0 -0.46269 -0.486161 0 -0.449146 -0.5 0 
-0.443346 -0.478104 0 -0.42362 -0.499402 0 -0.411369 -0.487411 0 
-0.422573 -0.478302 0 -0.395006 -0.495832 0 -0.388189 -0.478256 0 
-0.36779 -0.5 0 -0.369903 -0.477155 0 -0.347949 -0.494334 0 
-0.351941 -0.477676 0 -0.327639 -0.494408 0 -0.342845 -0.463854 0 
-0.32051 -0.478159 0 -0.607843 -0.45098 0 -0.588235 -0.45098 0 
-0.607843 -0.431373 0 -0.588235 -0.431373 0 -0.568627 -0.45098 0 
-0.54902 -0.45098 0 -0.568627 -0.431373 0 -0.54902 -0.431373 0 
-0.529412 -0.45098 0 -0.509804 -0.45098 0 -0.529412 -0.431373 0 
-0.509804 -0.431373 0 -0.475097 -0.453157 0 -0.488282 -0.442334 0 
-0.5 -0.463141 0 -0.5 -0.428561 0 -0.475332 -0.42459 0 
-0.43852 -0.46017 0 -0.459131 -0.455859 0 -0.459382 -0.435518 0 
-0.436412 -0.444017 0 -0.428756 -0.427842 0 -0.415128 -0.461907 0 
-0.396576 -0.4629 0 -0.413686 -0.442682 0 -0.407349 -0.424469 0 
-0.392977 -0.440759 0 -0.378084 -0.454851 0 -0.385286 -0.423448 0 
-0.370729 -0.433112 0 -0.361002 -0.455981 0 -0.353723 -0.434104 0 
-0.338122 -0.442857 0 -0.324158 -0.459527 0 -0.319848 -0.431828 0 
-0.607843 -0.411765 0 -0.588235 -0.411765 0 -0.607843 -0.392157 0 
-0.588235 -0.392157 0 -0.568627 -0.411765 0 -0.54902 -0.411765 0 
-0.568627 -0.392157 0 -0.54902 -0.392157 0 -0.529412 -0.411765 0 
-0.509804 -0.411765 0 -0.529412 -0.392157 0 -0.509804 -0.392157 0 
-0.478971 -0.409754 0 -0.496305 -0.404418 0 -0.479814 -0.387302 0 
-0.450041 -0.421691 0 -0.46308 -0.40303 0 -0.45172 -0.387006 0 
-0.43969 -0.406848 0 -0.431244 -0.390141 0 -0.419389 -0.408461 0 
-0.409312 -0.390231 0 -0.397423 -0.405109 0 -0.388156 -0.387289 0 
-0.376071 -0.404125 0 -0.361612 -0.385465 0 -0.361064 -0.409687 0 
-0.339246 -0.421345 0 -0.346405 -0.40108 0 -0.334452 -0.388916 0 
-0.32194 -0.413931 0 -0.316892 -0.394959 0 -0.607843 -0.372549 0 
-0.588235 -0.372549 0 -0.607843 -0.352941 0 -0.588235 -0.352941 0 
-0.568627 -0.372549 0 -0.54902 -0.372549 0 -0.568627 -0.352941 0 
-0.54902 -0.352941 0 -0.529412 -0.372549 0 -0.509804 -0.372549 0 
-0.529412 -0.352941 0 -0.509804 -0.352941 0 -0.467445 -0.375759 0 
-0.496051 -0.375641 0 -0.480371 -0.361002 0 -0.494622 -0.347113 0 
-0.46846 -0.347435 0 -0.446024 -0.369359 0 -0.452563 -0.352 0 
-0.431538 -0.35526 0 -0.422463 -0.373638 0 -0.416048 -0.347239 0 
-0.405411 -0.36649 0 -0.390566 -0.365891 0 -0.373818 -0.37377 0 
-0.372898 -0.346707 0 -0.358705 -0.355757 0 -0.347808 -0.372121 0 
-0.343542 -0.345428 0 -0.3309 -0.366668 0 -0.325677 -0.34696 0 
-0.31356 -0.375485 0 -0.607843 -0.333333 0 -0.588235 -0.333333 0 
-0.607843 -0.313726 0 -0.588235 -0.313726 0 -0.568627 -0.333333 0 
-0.54902 -0.333333 0 -0.568627 -0.313726 0 -0.54902 -0.313726 0 
-0.529412 -0.333333 0 -0.509804 -0.333333 0 -0.529412 -0.313726 0 
-0.509804 -0.313726 0 -0.479909 -0.331253 0 -0.469195 -0.317571 0 
-0.480824 -0.305633 0 -0.498283 -0.321862 0 -0.438179 -0.333779 0 
-0.453544 -0.327906 0 -0.443851 -0.309713 0 -0.403202 -0.336265 0 
-0.423132 -0.324645 0 -0.409463 -0.313374 0 -0.387803 -0.342767 0 
-0.388432 -0.318297 0 -0.372997 -0.320386 0 -0.357608 -0.329844 0 
-0.324866 -0.3271 0 -0.343279 -0.321057 0 -0.327393 -0.307174 0 
-0.607843 -0.294118 0 -0.588235 -0.294118 0 -0.607843 -0.27451 0 
-0.588235 -0.27451 0 -0.568627 -0.294118 0 -0.54902 -0.294118 0 
-0.568627 -0.27451 0 -0.54902 -0.27451 0 -0.529412 -0.294118 0 
-0.509804 -0.294118 0 -0.529412 -0.27451 0 -0.509804 -0.27451 0 
-0.492984 -0.270108 0 -0.474555 -0.271395 0 -0.49307 -0.294287 0 
-0.468914 -0.286549 0 -0.444956 -0.27952 0 -0.429723 -0.275968 0 
-0.454886 -0.294694 0 -0.429522 -0.302303 0 -0.402941 -0.277841 0 
-0.414984 -0.291451 0 -0.395166 -0.300364 0 -0.386123 -0.276446 0 
-0.364501 -0.27944 0 -0.376369 -0.294339 0 -0.359931 -0.303226 0 
-0.348115 -0.273404 0 -0.331924 -0.281378 0 -0.345038 -0.297156 0 
-0.315874 -0.293816 0 -0.607843 -0.254902 0 -0.588235 -0.254902 0 
-0.607843 -0.235294 0 -0.588235 -0.235294 0 -0.568627 -0.254902 0 
-0.54902 -0.254902 0 -0.568627 -0.235294 0 -0.54902 -0.235294 0 
-0.529412 -0.254902 0 -0.509804 -0.254902 0 -0.529412 -0.235294 0 
-0.509804 -0.235294 0 -0.470519 -0.251231 0 -0.468397 -0.234057 0 
-0.492608 -0.249047 0 -0.499366 -0.231073 0 -0.440785 -0.253632 0 
-0.455543 -0.260111 0 -0.429309 -0.240249 0 -0.449972 -0.23204 0 
-0.418752 -0.26164 0 -0.405053 -0.253618 0 -0.415551 -0.230943 0 
-0.396177 -0.234315 0 -0.370947 -0.258398 0 -0.38667 -0.254767 0 
-0.355694 -0.252255 0 -0.379607 -0.230097 0 -0.364705 -0.230339 0 
-0.320025 -0.264954 0 -0.335872 -0.255111 0 -0.346 -0.234454 0 
-0.324874 -0.23865 0 -0.607843 -0.215686 0 -0.588235 -0.215686 0 
-0.607843 -0.196078 0 -0.588235 -0.196078 0 -0.568627 -0.215686 0 
-0.54902 -0.215686 0 -0.568627 -0.196078 0 -0.54902 -0.196078 0 
-0.529412 -0.215686 0 -0.509804 -0.215686 0 -0.529412 -0.196078 0 
-0.509804 -0.196078 0 -0.47928 -0.221921 0 -0.476762 -0.206485 0 
-0.491561 -0.198354 0 -0.439218 -0.219052 0 -0.455823 -0.209456 0 
-0.461586 -0.19008 0 -0.443149 -0.193535 0 -0.407333 -0.214792 0 
-0.424234 -0.207285 0 -0.413199 -0.191508 0 -0.394676 -0.192981 0 
-0.387005 -0.209478 0 -0.356737 -0.210927 0 -0.371753 -0.202482 0 
-0.35053 -0.19212 0 -0.337753 -0.217679 0 -0.324506 -0.210055 0 
-0.309696 -0.202212 0 -0.309831 -0.228704 0 -0.607843 -0.176471 0 
-0.588235 -0.176471 0 -0.607843 -0.156863 0 -0.588235 -0.156863 0 
-0.568627 -0.176471 0 -0.54902 -0.176471 0 -0.568627 -0.156863 0 
-0.54902 -0.156863 0 -0.529412 -0.176471 0 -0.509804 -0.176471 0 
-0.529412 -0.156863 0 -0.509804 -0.156863 0 -0.469134 -0.176371 0 
-0.4977 -0.180636 0 -0.483297 -0.163782 0 -0.428819 -0.182689 0 
-0.447206 -0.169533 0 -0.435398 -0.157232 0 -0.462117 -0.158897 0 
-0.397875 -0.171301 0 -0.41767 -0.166326 0 -0.406556 -0.152597 0 
-0.380288 -0.179064 0 -0.364166 -0.177894 0 -0.384269 -0.156273 0 
-0.353523 -0.163759 0 -0.368991 -0.151059 0 -0.335366 -0.189635 0 
-0.318599 -0.181553 0 -0.335178 -0.168407 0 -0.313763 -0.162715 0 
-0.607843 -0.137255 0 -0.588235 -0.137255 0 -0.607843 -0.117647 0 
-0.588235 -0.117647 0 -0.568627 -0.137255 0 -0.54902 -0.137255 0 
-0.568627 -0.117647 0 -0.54902 -0.117647 0 -0.529412 -0.137255 0 
-0.509804 -0.137255 0 -0.529412 -0.117647 0 -0.509804 -0.117647 0 
-0.490999 -0.150148 0 -0.476842 -0.136709 0 -0.494942 -0.130758 0 
-0.440804 -0.137249 0 -0.458582 -0.139496 0 -0.431243 -0.117602 0 
-0.461462 -0.120851 0 -0.423997 -0.139186 0 -0.396563 -0.136169 0 
-0.410556 -0.124422 0 -0.385981 -0.111833 0 -0.379336 -0.131234 0 
-0.361486 -0.13071 0 -0.349927 -0.118686 0 -0.328347 -0.149104 0 
-0.346044 -0.145153 0 -0.332338 -0.128074 0 -0.323274 -0.116509 0 
-0.607843 -0.0980392 0 -0.588235 -0.0980392 0 -0.607843 -0.0784314 0 
-0.588235 -0.0784314 0 -0.568627 -0.0980392 0 -0.54902 -0.0980392 0 
-0.568627 -0.0784314 0 -0.54902 -0.0784314 0 -0.529412 -0.0980392 0 
-0.509804 -0.0980392 0 -0.529412 -0.0784314 0 -0.509804 -0.0784314 0 
-0.477226 -0.111976 0 -0.463708 -0.101068 0 -0.486358 -0.0979596 0 
-0.46987 -0.0792931 0 -0.494312 -0.0847008 0 -0.44094 -0.107427 0 
-0.432418 -0.0905545 0 -0.451086 -0.0843313 0 -0.402742 -0.108134 0 
-0.416973 -0.097263 0 -0.396485 -0.0846742 0 -0.414668 -0.0757442 0 
-0.370576 -0.105305 0 -0.356214 -0.0987351 0 -0.382306 -0.0856565 0 
-0.365419 -0.0762765 0 -0.3511 -0.0744825 0 -0.337622 -0.0991322 0 
-0.329658 -0.0864636 0 -0.312038 -0.0959317 0 -0.607843 -0.0588235 0 
-0.588235 -0.0588235 0 -0.607843 -0.0392157 0 -0.588235 -0.0392157 0 
[...]
POINT_DATA 3969
FIELD FieldData 5
id 1 3969 int
161 162 167 168 163 164 169 170 165 
166 171 172 107 108 123 124 109 110 
125 126 111 112 127 128 113 114 129 
130 115 116 131 132 173 174 179 180 
175 176 181 182 177 178 183 184 139 
140 155 156 141 142 157 158 143 144 
159 160 145 146 153 154 147 148 151 
152 185 186 191 192 187 188 193 194 
189 190 195 196 119 120 149 150 117 
118 137 138 105 106 135 136 103 104 
133 134 101 102 121 122 197 198 203 
204 199 200 205 206 201 202 207 208 
1013 1015 1499 2242 1019 1021 1759 1023 2645 
2628 2470 280 1411 1832 2483 1732 263 1774 
3387 209 210 215 216 211 212 217 218 
213 214 219 220 2788 1016 1009 9 1803 
1779 623 622 1798 571 1780 531 292 1046 
610 1775 390 632 1816 1665 62 1793 73 
221 222 227 228 223 224 229 230 225 
226 231 232 1529 2487 2790 1794 1776 2769 
369 2531 1646 320 792 570 1657 1395 354 
13 33 1129 586 1101 233 234 239 240 
235 236 241 242 237 238 243 244 2753 
1592 2748 614 96 540 564 43 260 1614 
1099 1452 1576 1453 333 556 1110 313 1597 
1088 245 246 251 252 247 248 253 254 
249 250 255 256 611 1745 1778 1017 1051 
1293 330 1501 554 1084 1588 1599 1135 1295 
1121 1325 1496 407 408 413 414 409 410 
415 416 411 412 417 418 86 1730 655 
1058 1610 270 36 1640 1647 542 1261 1090 
506 1147 1118 1119 1423 355 1373 419 420 
425 426 421 422 427 428 423 424 429 
430 612 781 2738 1022 301 1815 1637 520 
1091 1059 1593 1092 381 1645 1133 592 1257 
1572 1321 1320 1541 431 432 437 438 433 
434 439 440 435 436 441 442 782 1782 
654 1560 2806 1081 1651 1556 1323 314 1396 
1152 1134 1281 1437 1120 1478 1539 1441 443 
444 449 450 445 446 451 452 447 448 
453 454 590 1020 400 1633 1830 1656 1598 
1551 1532 1140 1351 1304 1149 1525 1136 1137 
1510 1336 1480 455 456 461 462 457 458 
463 464 459 460 465 466 1012 644 1725 
1438 560 1483 1791 523 1253 534 284 1365 
1258 1512 1479 1394 1419 1495 467 468 473 
474 469 470 475 476 471 472 477 478 
1143 63 2471 1618 7 1611 555 396 304 
1689 1586 1521 1537 1289 1262 1291 1534 1274 
1450 1443 479 480 485 486 481 482 487 
488 483 484 489 490 1018 1763 312 1338 
34 550 1543 1368 1688 1108 1087 1506 1616 
1489 1282 1442 1150 1273 1311 491 492 493 
494 495 496 2674 1761 2658 2770 2721 1639 
1547 1264 1369 1063 1565 1070 1612 1335 1254 
1284 1440 1491 657 658 663 664 659 660 
665 666 661 662 667 668 2725 1770 2034 
45 510 55 1813 545 1123 1107 1155 1141 
1430 1114 575 1297 1574 1385 1283 1319 1269 
669 670 675 676 671 672 677 678 673 
674 679 680 2706 1814 2517 1487 1728 1672 
2802 1797 1049 1792 275 1795 30 1399 90 
1600 1428 1475 1476 60 681 682 687 688 
683 684 689 690 685 686 691 692 501 
1622 1784 392 1735 1661 53 282 530 66 
515 653 346 505 1115 1609 546 693 694 
699 700 695 696 701 702 697 698 703 
704 1533 1986 1738 1726 380 331 302 97 
1590 1743 1760 500 601 2805 1398 760 1042 
1631 1662 705 706 711 712 707 708 713 
714 709 710 715 716 646 1577 2678 1652 
2 1484 1764 1787 1756 1041 633 772 76 
1062 1605 44 1039 350 717 718 723 724 
719 720 725 726 721 722 727 728 1729 
1014 1 2018 1769 1786 1680 1742 1749 581 
1800 1054 1566 261 521 1796 1634 38 1079 
1157 1678 729 730 735 736 731 732 737 
738 733 734 739 740 5 4 11 21 
31 6 1767 1531 1080 1762 1687 321 48 
98 1549 551 1142 40 741 742 747 748 
743 744 749 750 745 746 751 752 41 
61 91 1741 512 1664 2610 1650 1620 1518 
391 1783 532 361 1801 1744 643 273 58 
913 914 919 920 915 916 921 922 917 
918 923 924 357 257 1693 1677 1383 2580 
2564 594 1503 1675 1723 2547 1038 553 1746 
1765 1772 1715 1731 274 925 926 931 932 
927 928 933 934 929 930 935 936 596 
2066 507 397 547 1098 71 20 1128 8 
1033 1673 1397 1563 1621 1514 393 1517 1739 
605 937 938 943 944 939 940 945 946 
941 942 947 948 1026 597 647 1607 557 
317 1558 527 327 1559 22 514 10 1578 
1488 1035 1027 1065 949 950 955 956 951 
952 957 958 953 954 959 960 577 753 
783 793 72 617 558 348 297 627 537 
754 587 1112 1028 598 377 517 51 25 
961 962 967 968 963 964 969 970 965 
966 971 972 774 803 833 843 813 773 
814 844 784 823 845 804 846 764 847 
638 834 763 848 973 974 979 980 975 
976 981 982 977 978 983 984 859 860 
875 876 861 862 877 878 863 864 879 
880 865 866 881 882 867 868 883 884 
985 986 991 992 987 988 993 994 989 
990 995 996 891 892 907 908 893 894 
909 910 895 896 911 912 897 898 905 
906 899 900 903 904 997 998 1003 1004 
999 1000 1005 1006 1001 1002 1007 1008 871 
872 901 902 869 870 889 890 857 858 
887 888 855 856 885 886 853 874 873 
854 1159 1160 1174 1175 1161 1162 1176 1177 
1163 1164 1178 1179 1165 1166 1180 1181 1167 
1168 1182 1183 1169 1170 1184 1185 1171 1172 
1186 1187 1173 1188 1189 1190 1204 1205 1191 
1192 1206 1207 1193 1194 1208 1209 1195 1196 
1210 1211 1197 1198 1212 1213 1199 1200 1214 
1215 1201 1202 1216 1217 1203 1218 1219 1220 
1234 1235 1221 1222 1236 1237 1223 1224 1238 
1239 1225 1226 1240 1241 1227 1228 1242 1243 
1229 1230 1244 1245 1231 1232 1246 1247 1233 
1248 2546 2728 1504 771 1808 370 54 65 
1788 3374 2799 621 379 1748 642 582 3229 
2781 1818 652 1992 1064 1158 2818 3462 2715 
1810 559 2795 1777 3384 281 1833 1809 770 
791 1683 759 1790 1602 519 1307 85 1126 
1580 1029 640 334 27 574 1044 779 83 
271 499 84 1591 1308 780 801 2821 600 
2808 19 1109 344 503 1276 1043 1076 1519 
1486 88 562 1339 1691 1354 1535 1682 1277 
1298 1069 1381 584 1608 382 1658 758 1737 
1827 1826 359 82 768 14 1267 1266 1324 
1153 1151 1290 1252 1643 1265 1131 1263 1310 
1094 1294 1581 1259 1093 1674 1596 1148 1296 
1067 1425 1073 375 1096 651 339 1305 1482 
1104 1359 1139 1371 1275 1372 1524 1456 1387 
1401 1124 1386 1138 325 345 1573 1125 89 
1095 50 522 1292 342 1546 1306 812 1513 
802 589 1555 1358 1455 1344 1362 1400 1343 
1331 1431 1317 1328 1341 1492 1416 1357 1117 
1105 1538 1632 1102 283 1520 366 1089 1642 
26 767 1516 403 1824 2051 516 1346 1374 
1345 1375 1329 1347 1330 1348 1302 1569 1332 
1446 1286 1370 356 1554 285 1477 406 1567 
552 1628 336 1024 1127 1071 566 258 790 
35 1493 1417 1432 1360 1377 1378 1363 1392 
1364 1318 1333 1342 1314 1384 1285 1507 1568 
1409 1445 1260 1045 1627 1146 1550 1717 1100 
99 1669 799 529 1619 1789 1509 1389 1523 
1447 1361 1376 1406 1391 1407 1349 1287 1393 
1415 1271 1327 1122 1511 1156 343 1648 266 
1410 303 265 290 757 259 289 2819 3415 
1508 1433 1448 1402 1390 1388 1404 1420 1334 
1379 1270 1316 1350 1601 1301 1315 1603 1625 
1144 376 1540 513 49 1502 2836 268 93 
1050 64 399 1485 1785 1561 388 1494 1418 
1403 1405 1451 1449 1421 1299 1458 1356 1313 
1424 1086 395 573 1061 1353 67 524 789 
349 509 319 1459 1460 3454 1579 1461 1408 
1434 1436 1268 1435 1481 1312 1429 1367 1571 
1585 525 1522 1366 335 1582 1736 498 1462 
1466 620 28 1463 1464 1467 1468 1465 1469 
1255 1422 1256 1288 1303 1272 1490 1355 1542 
1340 1337 1380 1594 262 1552 1718 1663 70 
329 2274 778 822 1470 1471 1472 1473 1505 
1326 1474 1414 1300 1526 276 1570 1085 1553 
1116 1103 1280 1322 12 533 788 402 1694 
1695 1699 798 1696 1697 1700 1701 1698 1702 
1075 1457 1497 1624 1352 383 1249 1527 363 
1309 1587 405 535 39 1060 1106 1068 264 
593 1703 1707 1804 309 579 1704 1705 1708 
1709 1706 1710 1635 286 1660 326 1557 1279 
305 1604 1606 504 1679 1251 502 75 316 
78 585 561 583 307 549 1641 528 1711 
1712 800 1805 1823 1713 811 810 1828 1564 
374 1113 384 394 1048 1644 306 544 296 
1154 1130 386 1615 1536 1055 77 1056 624 
79 606 17 1626 1589 777 569 269 2840 
1822 1862 809 311 365 1613 37 340 565 
315 404 1145 1132 1629 56 1584 1040 401 
1382 656 626 1530 1074 1721 1690 1053 518 
29 1036 299 619 2830 1843 756 1820 364 
385 511 526 1528 1250 1444 1562 46 68 
1077 1617 1427 322 1751 602 59 625 1684 
615 353 1636 1595 373 24 310 1082 2852 
819 609 1841 87 1066 1575 591 576 1111 
272 57 635 47 603 2578 1766 2595 1072 
595 352 1655 295 2423 1638 81 298 599 
497 1025 630 2831 832 541 1078 1057 360 
1781 634 371 1583 1544 293 1654 1548 1747 
294 1733 1653 1454 372 1623 100 1037 1011 
1649 1083 267 23 588 92 2839 1821 797 
808 1848 69 616 1740 1716 1771 1685 1412 
332 1754 604 1670 563 362 1722 324 1724 
2338 536 1052 1630 1097 32 308 300 538 
796 650 821 1844 830 1755 1659 80 1686 
323 1671 2503 1545 2629 15 3 1692 543 
1676 1010 1666 18 1030 287 42 378 288 
548 578 787 639 766 618 828 1819 2835 
820 1840 1720 1500 1031 1515 1278 1667 1681 
387 1034 52 1047 1032 367 277 318 567 
278 328 608 649 629 755 806 776 816 
818 817 1838 1845 2841 16 398 508 337 
347 607 368 648 338 775 358 637 628 
805 568 765 786 815 839 840 841 807 
831 842 1835 1836 1852 1842 1839 794 795 
850 849 824 835 851 852 785 825 1849 
1850 836 826 837 1851 1853 827 838 1854 
1855 829 1856 1857 1834 1858 1859 1837 1860 
1861 1863 1864 1865 1879 1880 1866 1867 1881 
1882 1868 1869 1883 1884 1870 1871 1885 1886 
1872 1873 1887 1888 1874 1875 1889 1890 1876 
1877 1891 1892 1878 1893 1894 1895 1909 1910 
1896 1897 1911 1912 1898 1899 1913 1914 1900 
1901 1915 1916 1902 1903 1917 1918 1904 1905 
1919 1920 1906 1907 1921 1922 1908 1923 1924 
1925 1939 1940 1926 1927 1941 1942 1928 1929 
1943 1944 1930 1931 1945 1946 1932 1933 1947 
1948 1934 1935 1949 1950 1937 1952 1951 1936 
1953 1938 2114 2115 2130 2131 2116 2117 2132 
2133 2118 2119 2134 2135 2120 2121 2136 2137 
2122 2123 2138 2139 2124 2125 2140 2141 2126 
2127 2142 2143 2128 2129 2144 2145 2146 2147 
2162 2163 2148 2149 2164 2165 2150 2151 2166 
2167 2152 2153 2168 2169 2154 2155 2170 2171 
2156 2157 2172 2173 2158 2159 2174 2175 2160 
2161 2176 2177 2178 2179 2194 2195 2180 2181 
2196 2197 2182 2183 2198 2199 2184 2185 2200 
2201 2186 2187 2202 2203 2188 2189 2204 2205 
2190 2191 2206 2207 2192 2193 2208 2209 1954 
1799 74 2984 3348 2743 3406 3388 2053 3188 
3278 3299 94 2779 3433 2976 2797 3128 3367 
2793 1831 2765 2791 2307 3425 645 351 2810 
2807 3318 1758 1829 631 3137 389 641 291 
1807 3473 3472 769 580 2809 2637 1812 3464 
3339 3446 2812 2009 3259 3272 3157 3455 2823 
3333 2068 3059 3260 2560 3418 3417 3482 2814 
3378 279 3474 2988 3279 2828 2605 3012 2373 
3343 2607 3185 2030 2057 2046 3245 2656 2086 
3362 2665 3364 2472 2228 3436 2613 3383 2593 
3353 2801 2815 2796 2651 2816 1973 3010 3253 
3057 2626 3145 3312 3043 3195 3005 3042 3044 
2221 2089 2572 2106 2992 2223 2224 3013 2015 
2480 2040 2270 2464 3203 2054 3025 2998 3369 
2544 1439 2592 2010 3255 2012 2455 2044 2108 
3035 3226 2101 2272 2337 3212 2222 2375 2490 
2063 2277 2529 2241 2474 2358 2554 2058 2540 
3182 2240 2094 2553 2534 3269 3334 2837 3130 
2650 2259 2565 2039 2321 3165 2424 2096 2574 
2293 2405 2425 2400 2334 2399 2350 2318 2387 
2415 2366 2522 3283 2541 2325 1806 1980 3407 
2729 3284 3447 3125 3004 2497 3282 2757 2103 
2342 2073 2112 2367 2456 2314 2421 2297 2328 
2299 2298 2317 2329 2312 2333 2525 2332 2383 
2418 95 1847 2985 2635 2036 2826 2496 3133 
2506 3134 3316 2100 2357 2403 2494 3204 2300 
2296 2281 2313 2265 2343 2327 2311 2360 2345 
2361 2462 2344 2315 3475 3048 2825 2834 2502 
3049 2371 3187 2323 3359 3292 2599 2262 3213 
3132 2302 2521 2282 2295 2249 2310 2280 2426 
2378 2394 2316 2331 2330 3303 1757 3209 3309 
3427 3050 3174 3242 2014 1987 3144 2028 3244 
3326 2016 2557 2235 2308 2401 2218 2336 2250 
2248 2264 2395 2377 2458 2349 2348 2347 2364 
3030 2430 2431 2432 1994 2433 2434 2986 3492 
2623 2975 2038 2419 3003 2075 2283 2047 2017 
2352 2285 2234 2393 2236 2380 2279 2427 2346 
2363 2379 2362 2413 2435 2436 2440 2441 2437 
2438 2442 2443 2439 2444 3437 3158 3465 3154 
3159 3345 3054 2555 3214 3183 2528 2368 2284 
2266 2320 2231 2233 2410 2411 2397 2412 2381 
2445 2446 2447 2448 2449 2067 2669 2829 3398 
2239 3015 2510 2563 2763 2088 2301 2542 2351 
2219 2267 2254 2252 2326 2294 2396 2247 2428 
2680 2681 2686 2687 2682 2683 2688 2689 2684 
2685 2690 3483 1846 3160 2972 2625 1989 3135 
2288 3045 2324 2585 2420 2341 2479 2566 2303 
2416 2286 2255 2353 2691 2692 2696 2697 2693 
2694 2698 2699 2695 2700 3389 3456 2618 3034 
2643 3246 3014 3267 2591 2559 2359 2319 3323 
2511 2384 2229 2102 2335 2526 2055 2369 2069 
1825 2701 2702 2705 2817 2824 2703 2704 3349 
3169 3060 2020 3352 3403 3216 2772 2271 2005 
2275 2113 2060 2062 2292 2214 2408 2571 3002 
2505 2087 2385 3484 3476 2832 3466 3485 3289 
2983 2973 3139 2226 1965 2099 3227 2718 3276 
2029 2407 3262 2025 2602 2577 3233 2061 2211 
2537 2463 3153 3236 3202 2071 2072 2245 2049 
3438 3189 2833 3221 2535 1976 2616 2670 3205 
3206 2659 3365 2762 2007 3126 3016 3297 3337 
2004 2582 3235 2545 2244 2097 2289 2230 2080 
2556 3006 3178 3457 3280 2827 3199 3140 2339 
2019 2987 2649 2673 2609 3393 3375 3175 3176 
2759 1997 3207 3287 3423 3193 2575 2766 3332 
2256 2023 2603 3052 3313 2993 3172 3495 3408 
3170 3496 2978 1981 2002 2486 1974 3304 2485 
3335 3053 2033 2746 3275 2498 3217 2737 3024 
2011 3037 3422 2013 572 3019 3394 3026 3396 
3177 2820 3329 3502 3477 3310 3179 3009 3190 
1990 2549 2666 1977 3382 2484 2468 2466 3286 
3336 2719 3366 3376 2751 3395 3166 3356 2747 
1964 2771 2764 2773 1995 3493 3379 3494 2843 
3219 3428 3180 1985 3281 2488 2999 2619 2990 
2655 2452 2667 2642 3196 2630 2451 2516 2749 
2515 3266 3354 3306 2787 2778 2716 2050 3412 
2774 3247 2862 3399 3486 2845 3419 3300 3448 
3400 3311 1982 3250 3230 2356 3181 2981 1975 
2639 2354 2653 2962 2713 3302 3344 2730 2597 
3372 3392 2648 2641 2594 2707 3373 1972 2847 
2846 3506 3504 3467 3487 3370 3320 3409 3390 
3261 3449 3000 3360 3301 3168 2989 3161 3021 
3171 2969 3210 3191 1413 2003 2726 3131 2624 
3285 2390 3051 2842 2850 2856 2844 2849 3497 
3513 3498 3478 3458 3505 3439 3468 3499 3489 
3330 3429 3200 3410 3290 3350 3270 3421 3040 
3251 3430 3240 3151 2851 2838 2853 2848 2854 
2855 3512 3503 2857 2858 3514 2859 3515 2860 
3516 3507 2861 2863 3517 3488 3508 2864 2865 
3518 3509 3522 3523 3469 3519 3510 3524 3459 
3525 2866 2867 2882 2883 2868 2869 2884 2885 
2870 2871 2886 2887 2872 2873 2888 2889 2874 
2875 2890 2891 2876 2877 2892 2893 2878 2879 
2894 2895 2880 2881 2896 2897 2898 2899 2914 
2915 2900 2901 2916 2917 2902 2903 2918 2919 
2904 2905 2920 2921 2906 2907 2922 2923 2908 
2909 2924 2925 2910 2911 2926 2927 2912 2913 
2928 2929 2930 2931 2946 2947 2932 2933 2948 
2949 2934 2935 2950 2951 2936 2937 2952 2953 
2938 2939 2954 2955 2940 2941 2956 2957 2959 
2958 2943 2942 2945 2944 2961 2960 3062 3063 
3078 3079 3064 3065 3080 3081 3066 3067 3082 
3083 3068 3069 3084 3085 3070 3071 3086 3087 
3592 3593 3598 3599 3594 3595 3600 3601 3596 
3597 3602 3603 3094 3095 3110 3111 3096 3097 
3112 3113 3098 3099 3114 3115 3100 3101 3116 
3117 3102 3103 3118 3119 3604 3605 3610 3611 
3606 3607 3612 3613 3608 3609 3614 3615 3090 
3091 3120 3121 3088 3089 3108 3109 3076 3077 
3106 3107 3074 3075 3104 3105 3072 3073 3092 
3093 3616 3617 3622 3623 3618 3619 3624 3625 
3620 3621 3626 3627 1768 539 2800 1752 2785 
2731 2995 1727 3056 2742 3368 2783 2727 1955 
1668 2662 1956 2644 2454 1961 1962 1967 3628 
3629 3634 3635 3630 3631 3636 3637 3632 3633 
3638 3639 2614 3032 3129 3358 3149 1979 2994 
3215 2811 3397 3319 3377 2782 761 3249 1959 
1957 1958 2710 1968 3640 3641 3646 3647 3642 
3643 3648 3649 3644 3645 3650 3651 2979 2664 
2638 2043 2081 3028 1983 2212 3198 2045 1811 
2243 3338 3443 3416 3424 2548 2098 2082 3652 
3653 3658 3659 3654 3655 3660 3661 3656 3657 
3662 3663 2406 3163 3296 3264 2391 3237 3164 
2636 3223 2741 2567 2822 3463 3138 3442 1498 
2963 2767 3664 3665 3670 3671 3666 3667 3672 
3673 3668 3669 3674 3675 2600 2215 2077 2091 
2309 2261 2568 3315 2997 3124 3173 3162 3426 
3295 2813 1817 2803 2786 3452 2654 3676 3677 
3682 3683 3679 3685 3684 3678 3681 3680 3686 
3687 2111 2246 3192 2273 2093 2076 2291 2520 
2588 2500 2671 3294 2031 2501 3258 2668 3047 
1714 2006 3218 3688 3689 3694 3695 3690 3691 
3696 3697 3692 3693 3698 3699 2539 2508 2414 
3186 2457 2269 2074 2660 2027 3023 2070 2551 
3142 3022 3363 2622 3414 2776 2001 3700 3701 
3706 3707 3702 3703 3708 3709 3704 3705 3710 
3711 2523 2478 2473 2092 2109 2524 2217 3305 
3033 2386 2026 3254 2041 2583 3435 3146 3445 
2736 3712 3713 3718 3719 3714 3715 3720 3721 
3716 3717 3722 3723 2493 2475 2388 2491 2509 
2398 2260 2392 2110 2409 2581 2032 2305 2552 
2213 3122 3147 2569 2768 2732 3444 1960 3724 
3725 3730 3731 3726 3727 3732 3733 3728 3729 
3734 3735 2429 2382 2477 2389 2340 2376 2104 
2606 2558 2504 2238 2996 2532 2527 3148 3156 
3017 1970 3736 3737 3742 3743 3738 3739 3744 
3745 3740 3741 3746 3747 2422 2476 2365 2492 
2216 2090 2370 2465 2232 2587 1998 2640 3243 
2579 2000 1999 3277 1773 3748 3749 3754 3755 
3750 3751 3756 3757 3752 3753 3758 3759 2460 
2278 2461 2489 2263 2287 2507 2304 2417 3123 
2538 3322 3039 3058 3029 3434 762 2744 3036 
2258 3760 3761 3766 3767 3762 3763 3768 3769 
3764 3765 3770 3771 2459 2402 2404 2481 2237 
2495 3232 3155 2584 2561 2227 2550 3027 3234 
3298 1753 3038 1802 3773 3772 3775 3774 3776 
3777 2253 2251 2107 2105 2268 2056 2220 2573 
2633 3225 2042 2021 3386 1991 3208 2008 2754 
3385 2355 2780 3778 3779 3784 3785 3780 3781 
3786 3787 3782 3783 3788 3789 2589 3222 2586 
2064 3324 3314 2276 2652 2513 3018 2095 3308 
3453 2601 3268 2777 2708 2761 2530 3790 3791 
3796 3797 3792 3793 3798 3799 3794 3795 3800 
3801 2059 3274 2570 2225 3342 2083 3263 3194 
3143 2784 2631 3007 3239 3357 3257 3008 2740 
2717 1963 2733 3802 3803 3808 3809 3804 3805 
3810 3811 3806 3807 3812 3813 2085 2048 2065 
3184 3293 3273 2079 2576 3252 3055 341 1734 
3256 2450 2469 2723 2965 2966 3814 3815 3820 
3821 3816 3817 3822 3823 3818 3819 3824 3825 
3152 3224 2608 2257 2798 2024 1993 3167 2794 
2374 3248 2617 3328 613 2792 3327 2739 2596 
2621 2967 3826 3827 3832 3833 3828 3829 3834 
3835 3830 3831 3836 3837 2604 2543 2037 3046 
2078 3288 2620 2512 2804 3347 3127 3405 2982 
2677 1426 2755 2970 2971 2712 2968 3838 3839 
3844 3845 3840 3841 3846 3847 3842 3843 3848 
3849 2536 3355 1719 1996 3228 2758 2750 3197 
2775 3404 2752 2632 2084 2714 2661 2533 2991 
2709 3011 3850 3851 3856 3857 3852 3853 3858 
3859 3854 3855 3860 3861 2022 3307 3136 3413 
2722 2724 1750 2789 3432 2290 3317 2756 2679 
2734 2562 3001 3031 3325 3041 3061 3862 3863 
3868 3869 3870 3865 3864 3871 3867 3873 3872 
3866 2514 2735 2745 2453 3238 3346 2612 636 
2306 2720 1971 2482 2977 2964 2467 3201 1969 
3874 3875 3880 3881 3876 3877 3882 3883 3878 
3879 3884 3885 2499 3402 2372 2711 2676 3265 
2663 2647 2760 2657 2611 2672 1984 3211 2210 
2322 2974 3231 3291 2590 3321 3331 3886 3887 
3892 3893 3888 3889 3894 3895 3890 3891 3896 
3897 2646 3271 2615 1966 2598 1988 2519 2627 
1978 2634 2035 2675 3141 3241 3381 2518 3411 
3898 3899 3904 3905 3900 3901 3906 3907 3902 
3903 3908 3909 3391 3341 3340 3020 2052 3401 
3420 3371 3361 3220 3441 3150 3351 3461 2980 
3431 3471 3440 3481 3910 3911 3916 3917 3912 
3913 3918 3919 3914 3915 3920 3921 3526 3479 
3480 3450 3451 3527 3520 3528 3460 3529 3490 
3500 3380 3470 3530 3511 3491 3501 3521 3531 
3922 3923 3928 3929 3924 3925 3930 3931 3926 
3927 3932 3933 3532 3533 3548 3549 3534 3535 
3550 3551 3536 3537 3552 3553 3538 3539 3554 
3555 3540 3541 3556 3557 3934 3935 3940 3941 
3936 3937 3942 3943 3938 3939 3944 3945 3564 
3565 3580 3581 3566 3567 3582 3583 3568 3569 
3584 3585 3570 3571 3586 3587 3572 3573 3588 
3589 3946 3947 3952 3953 3948 3949 3954 3955 
3950 3951 3956 3957 3560 3561 3590 3591 3558 
3559 3578 3579 3546 3547 3576 3577 3544 3545 
3574 3575 3542 3543 3562 3563 3958 3959 3964 
3965 3960 3961 3966 3967 3962 3968 3963 3969 

C_[0] 1 3969 double
0 0 0 0 0 0 0 0 0 
0 0 0 0 0 0 0 0 0 
0 0 0 0 0 0 0 0 0 
0 0 0 0 0 0 0 0 0 
0 0 0 0 0 0 0 0 0 
0 0 0 0 0 0 0 0 0 
0 0 0 0 0 0 0 0 0 
0 0 0 0 0 0 0 0 0 
0 0 0 0 0 0 0 0 0 
0 0 0 0 0 0 0 0 0 
0 0 0 0 0 0 0 0 0 
0 0 0 0 0 0 0 0 0 
0.00142395 0.00281497 0.00921218 0.0164475 0.0121266 0.00590597 0.0239195 0.010006 0.0232978 
0.0316533 0.0170956 0.046304 0.0142061 0.0557488 0.0261097 0.0606892 0.0289076 0.0949411 
0.0701645 0 0 0 0 0 0 0 0 
0 0 0 0 0.0231816 0.0157516 0.00446264 0.00828267 0.0365213 
0.0430502 0.0316676 0.0468454 0.0612163 0.0849453 0.0553486 0.0666061 0.0833551 0.111392 
0.103946 0.0901208 0.13595 0.135074 0.0983199 0.149691 0.144587 0.115502 0.182228 
0 0 0 0 0 0 0 0 0 