# vtk DataFile Version 3.0
Generated by LAMMPS
ASCII
DATASET POLYDATA
POINTS 3969 float
-0.607843 -0.607843 0 -0.588235 -0.607843 0 -0.607843 -0.588235 0 
-0.588235 -0.588235 0 -0.568627 -0.607843 0 -0.54902 -0.607843 0 
-0.568627 -0.588235 0 -0.54902 -0.588235 0 -0.529412 -0.607843 0 
-0.509804 -0.607843 0 -0.529412 -0.588235 0 -0.509804 -0.588235 0 
-0.490196 -0.607843 0 -0.470588 -0.607843 0 -0.490196 -0.588235 0 
-0.470588 -0.588235 0 -0.45098 -0.607843 0 -0.431373 -0.607843 0 
-0.45098 -0.588235 0 -0.431373 -0.588235 0 -0.411765 -0.607843 0 
-0.392157 -0.607843 0 -0.411765 -0.588235 0 -0.392157 -0.588235 0 
-0.372549 -0.607843 0 -0.352941 -0.607843 0 -0.372549 -0.588235 0 
-0.352941 -0.588235 0 -0.333333 -0.607843 0 -0.313726 -0.607843 0 
-0.333333 -0.588235 0 -0.313726 -0.588235 0 -0.607843 -0.568627 0 
-0.588235 -0.568627 0 -0.607843 -0.54902 0 -0.588235 -0.54902 0 
-0.568627 -0.568627 0 -0.54902 -0.568627 0 -0.568627 -0.54902 0 
-0.54902 -0.54902 0 -0.529412 -0.568627 0 -0.509804 -0.568627 0 
-0.529412 -0.54902 0 -0.509804 -0.54902 0 -0.490196 -0.568627 0 
-0.470588 -0.568627 0 -0.490196 -0.54902 0 -0.470588 -0.54902 0 
-0.45098 -0.568627 0 -0.431373 -0.568627 0 -0.45098 -0.54902 0 
-0.431373 -0.54902 0 -0.411765 -0.568627 0 -0.392157 -0.568627 0 
-0.411765 -0.54902 0 -0.392157 -0.54902 0 -0.372549 -0.568627 0 
-0.352941 -0.568627 0 -0.352941 -0.54902 0 -0.372549 -0.54902 0 
-0.333333 -0.568627 0 -0.313726 -0.568627 0 -0.313726 -0.54902 0 
-0.333333 -0.54902 0 -0.607843 -0.529412 0 -0.588235 -0.529412 0 
-0.607843 -0.509804 0 -0.588235 -0.509804 0 -0.568627 -0.529412 0 
-0.54902 -0.529412 0 -0.568627 -0.509804 0 -0.54902 -0.509804 0 
-0.529412 -0.529412 0 -0.509804 -0.529412 0 -0.529412 -0.509804 0 
-0.509804 -0.509804 0 -0.470588 -0.509804 0 -0.490196 -0.509804 0 
-0.470588 -0.529412 0 -0.490196 -0.529412 0 -0.431373 -0.509804 0 
-0.45098 -0.509804 0 -0.431373 -0.529412 0 -0.45098 -0.529412 0 
-0.392157 -0.509804 0 -0.411765 -0.509804 0 -0.392157 -0.529412 0 
-0.411765 -0.529412 0 -0.352941 -0.509804 0 -0.372549 -0.509804 0 
-0.352941 -0.529412 0 -0.372549 -0.529412 0 -0.313726 -0.509804 0 
-0.333333 -0.509804 0 -0.313726 -0.529412 0 -0.333333 -0.529412 0 
-0.607843 -0.490196 0 -0.588235 -0.490196 0 -0.607843 -0.470588 0 
-0.588235 -0.470588 0 -0.568627 -0.490196 0 -0.54902 -0.490196 0 
-0.568627 -0.470588 0 -0.54902 -0.470588 0 -0.529412 -0.490196 0 
-0.509804 -0.490196 0 -0.529412 -0.470588 0 -0.509804 -0.470588 0 
-0.5 -0.491834 0 -0.480304 -0.5 0 -0.484955 -0.474352 0 
-0.464322 -0.476034 0 -0.462252 -0.486082 0 -0.449147 -0.5 0 
-0.442735 -0.47732 0 -0.423936 -0.499682 0 -0.411317 -0.487194 0 
-0.42248 -0.478814 0 -0.394771 -0.496383 0 -0.391358 -0.476386 0 
-0.369177 -0.499821 0 -0.373738 -0.475762 0 -0.347977 -0.495088 0 
-0.356878 -0.479814 0 -0.351726 -0.463798 0 -0.327933 -0.494789 0 
-0.328373 -0.474826 0 -0.312626 -0.47622 0 -0.607843 -0.45098 0 
-0.588235 -0.45098 0 -0.607843 -0.431373 0 -0.588235 -0.431373 0 
-0.568627 -0.45098 0 -0.54902 -0.45098 0 -0.568627 -0.431373 0 
-0.54902 -0.431373 0 -0.529412 -0.45098 0 -0.509804 -0.45098 0 
-0.529412 -0.431373 0 -0.509804 -0.431373 0 -0.475763 -0.45531 0 
-0.488904 -0.442573 0 -0.5 -0.463141 0 -0.5 -0.428561 0 
-0.440414 -0.459362 0 -0.459987 -0.453417 0 -0.462712 -0.433597 0 
-0.440823 -0.440711 0 -0.419731 -0.459486 0 -0.401685 -0.461864 0 
-0.419594 -0.439619 0 -0.401201 -0.437886 0 -0.385046 -0.451043 0 
-0.380953 -0.429224 0 -0.369051 -0.454148 0 -0.363277 -0.433108 0 
-0.347613 -0.440905 0 -0.333562 -0.457444 0 -0.332433 -0.429125 0 
-0.320277 -0.445882 0 -0.312689 -0.42496 0 -0.607843 -0.411765 0 
-0.588235 -0.411765 0 -0.607843 -0.392157 0 -0.588235 -0.392157 0 
-0.568627 -0.411765 0 -0.54902 -0.411765 0 -0.568627 -0.392157 0 
-0.54902 -0.392157 0 -0.529412 -0.411765 0 -0.509804 -0.411765 0 
-0.529412 -0.392157 0 -0.509804 -0.392157 0 -0.478402 -0.422558 0 
-0.479368 -0.407191 0 -0.496546 -0.401576 0 -0.465094 -0.396746 0 
-0.434894 -0.42304 0 -0.454483 -0.418104 0 -0.444254 -0.401396 0 
-0.414088 -0.41971 0 -0.425899 -0.402821 0 -0.406535 -0.398553 0 
-0.3945 -0.417936 0 -0.386531 -0.397134 0 -0.372302 -0.407628 0 
-0.358773 -0.397281 0 -0.351405 -0.417372 0 -0.335524 -0.409148 0 
-0.331456 -0.39011 0 -0.3154 -0.406199 0 -0.607843 -0.372549 0 
-0.588235 -0.372549 0 -0.607843 -0.352941 0 -0.588235 -0.352941 0 
-0.568627 -0.372549 0 -0.54902 -0.372549 0 -0.568627 -0.352941 0 
-0.54902 -0.352941 0 -0.529412 -0.372549 0 -0.509804 -0.372549 0 
-0.529412 -0.352941 0 -0.509804 -0.352941 0 -0.481259 -0.384379 0 
-0.471301 -0.367786 0 -0.496471 -0.372112 0 -0.480218 -0.353627 0 
-0.436797 -0.382739 0 -0.455291 -0.379397 0 -0.451343 -0.359895 0 
-0.43711 -0.345211 0 -0.429631 -0.365011 0 -0.416345 -0.381084 0 
-0.397834 -0.378757 0 -0.4132 -0.356022 0 -0.39838 -0.355312 0 
-0.372639 -0.381475 0 -0.383336 -0.366283 0 -0.369231 -0.348395 0 
-0.360109 -0.365861 0 -0.3476 -0.382382 0 -0.34363 -0.35915 0 
-0.327509 -0.369816 0 -0.320612 -0.351944 0 -0.607843 -0.333333 0 
-0.588235 -0.333333 0 -0.607843 -0.313726 0 -0.588235 -0.313726 0 
-0.568627 -0.333333 0 -0.54902 -0.333333 0 -0.568627 -0.313726 0 
-0.54902 -0.313726 0 -0.529412 -0.333333 0 -0.509804 -0.333333 0 
-0.529412 -0.313726 0 -0.509804 -0.313726 0 -0.495215 -0.343187 0 
-0.471511 -0.334909 0 -0.481396 -0.320324 0 -0.498721 -0.317265 0 
-0.456893 -0.341977 0 -0.441211 -0.321794 0 -0.455624 -0.31649 0 
-0.428313 -0.310162 0 -0.422397 -0.336353 0 -0.410885 -0.323194 0 
-0.397175 -0.332292 0 -0.396935 -0.305556 0 -0.382209 -0.337211 0 
-0.382406 -0.308695 0 -0.36848 -0.320072 0 -0.355511 -0.336335 0 
-0.354057 -0.311493 0 -0.317092 -0.314722 0 -0.317267 -0.332599 0 
-0.338185 -0.33982 0 -0.336309 -0.319465 0 -0.607843 -0.294118 0 
-0.588235 -0.294118 0 -0.607843 -0.27451 0 -0.588235 -0.27451 0 
-0.568627 -0.294118 0 -0.54902 -0.294118 0 -0.568627 -0.27451 0 
-0.54902 -0.27451 0 -0.529412 -0.294118 0 -0.509804 -0.294118 0 
-0.529412 -0.27451 0 -0.509804 -0.27451 0 -0.492867 -0.284412 0 
-0.470475 -0.272253 0 -0.481285 -0.294646 0 -0.469834 -0.304177 0 
-0.456947 -0.280695 0 -0.43411 -0.285333 0 -0.446114 -0.296235 0 
-0.419138 -0.274278 0 -0.401058 -0.285038 0 -0.415211 -0.297533 0 
-0.370766 -0.267075 0 -0.383212 -0.281084 0 -0.368557 -0.29258 0 
-0.353714 -0.286623 0 -0.339436 -0.272594 0 -0.325036 -0.286931 0 
-0.33725 -0.299441 0 -0.312971 -0.271775 0 -0.607843 -0.254902 0 
-0.588235 -0.254902 0 -0.607843 -0.235294 0 -0.588235 -0.235294 0 
-0.568627 -0.254902 0 -0.54902 -0.254902 0 -0.568627 -0.235294 0 
-0.54902 -0.235294 0 -0.529412 -0.254902 0 -0.509804 -0.254902 0 
-0.529412 -0.235294 0 -0.509804 -0.235294 0 -0.472513 -0.256851 0 
-0.494175 -0.261305 0 -0.471472 -0.235711 0 -0.490997 -0.240455 0 
-0.447388 -0.262984 0 -0.432566 -0.25813 0 -0.441282 -0.234117 0 
-0.455252 -0.243565 0 -0.40724 -0.260786 0 -0.390759 -0.260598 0 
-0.421171 -0.243133 0 -0.407765 -0.235035 0 -0.389926 -0.238849 0 
-0.354459 -0.262588 0 -0.374992 -0.244164 0 -0.359285 -0.239976 0 
-0.325663 -0.257292 0 -0.340355 -0.24577 0 -0.328299 -0.230182 0 
-0.313082 -0.242794 0 -0.607843 -0.215686 0 -0.588235 -0.215686 0 
-0.607843 -0.196078 0 -0.588235 -0.196078 0 -0.568627 -0.215686 0 
-0.54902 -0.215686 0 -0.568627 -0.196078 0 -0.54902 -0.196078 0 
-0.529412 -0.215686 0 -0.509804 -0.215686 0 -0.529412 -0.196078 0 
-0.509804 -0.196078 0 -0.468142 -0.218228 0 -0.498824 -0.223236 0 
-0.482633 -0.209507 0 -0.474351 -0.193178 0 -0.429797 -0.220572 0 
-0.450668 -0.214249 0 -0.438714 -0.199979 0 -0.455771 -0.192297 0 
-0.397767 -0.216793 0 -0.415457 -0.210288 0 -0.407597 -0.194659 0 
-0.38723 -0.193012 0 -0.381003 -0.214307 0 -0.366452 -0.216985 0 
-0.357832 -0.198019 0 -0.348383 -0.223436 0 -0.340076 -0.206706 0 
-0.325816 -0.201744 0 -0.310764 -0.195599 0 -0.312982 -0.22185 0 
-0.607843 -0.176471 0 -0.588235 -0.176471 0 -0.607843 -0.156863 0 
-0.588235 -0.156863 0 -0.568627 -0.176471 0 -0.54902 -0.176471 0 
-0.568627 -0.156863 0 -0.54902 -0.156863 0 -0.529412 -0.176471 0 
-0.509804 -0.176471 0 -0.529412 -0.156863 0 -0.509804 -0.156863 0 
-0.490111 -0.189251 0 -0.468952 -0.161113 0 -0.498132 -0.171494 0 
-0.485434 -0.154001 0 -0.425397 -0.187006 0 -0.460816 -0.173117 0 
-0.442335 -0.173618 0 -0.428203 -0.162525 0 -0.446827 -0.150456 0 
-0.412318 -0.171478 0 -0.394133 -0.174845 0 -0.397645 -0.153199 0 
-0.372334 -0.187247 0 -0.350821 -0.179782 0 -0.379499 -0.16208 0 
-0.363618 -0.163951 0 -0.335449 -0.17926 0 -0.318325 -0.174135 0 
-0.334159 -0.15825 0 -0.312851 -0.155931 0 -0.607843 -0.137255 0 
-0.588235 -0.137255 0 -0.607843 -0.117647 0 -0.588235 -0.117647 0 
-0.568627 -0.137255 0 -0.54902 -0.137255 0 -0.568627 -0.117647 0 
-0.54902 -0.117647 0 -0.529412 -0.137255 0 -0.509804 -0.137255 0 
-0.529412 -0.117647 0 -0.509804 -0.117647 0 -0.490719 -0.139703 0 
-0.476771 -0.124563 0 -0.493659 -0.120612 0 -0.43499 -0.137167 0 
-0.461768 -0.142339 0 -0.439646 -0.117857 0 -0.458359 -0.12394 0 
-0.41673 -0.146086 0 -0.404689 -0.133677 0 -0.422507 -0.120015 0 
-0.3946 -0.117953 0 -0.352202 -0.150926 0 -0.382417 -0.139519 0 
-0.36713 -0.136344 0 -0.376875 -0.115627 0 -0.358873 -0.116829 0 
-0.326177 -0.140135 0 -0.343744 -0.13365 0 -0.329526 -0.119456 0 
-0.607843 -0.0980392 0 -0.588235 -0.0980392 0 -0.607843 -0.0784314 0 
-0.588235 -0.0784314 0 -0.568627 -0.0980392 0 -0.54902 -0.0980392 0 
-0.568627 -0.0784314 0 -0.54902 -0.0784314 0 -0.529412 -0.0980392 0 
-0.509804 -0.0980392 0 -0.529412 -0.0784314 0 -0.509804 -0.0784314 0 
-0.476104 -0.101776 0 -0.486203 -0.0894657 0 -0.494443 -0.076598 0 
-0.428948 -0.0991139 0 -0.458566 -0.103716 0 -0.462747 -0.0854906 0 
-0.440376 -0.0891182 0 -0.408246 -0.105584 0 -0.399546 -0.0898959 0 
-0.41484 -0.0796524 0 -0.346715 -0.106367 0 -0.382742 -0.0956052 0 
-0.366541 -0.0914049 0 -0.351528 -0.0862726 0 -0.319637 -0.108351 0 
-0.332697 -0.0896881 0 -0.324098 -0.0778928 0 -0.607843 -0.0588235 0 
-0.588235 -0.0588235 0 -0.607843 -0.0392157 0 -0.588235 -0.0392157 0 
[...]
POINT_DATA 3969
FIELD FieldData 5
id 1 3969 int
161 162 167 168 163 164 169 170 165 
166 171 172 107 108 123 124 109 110 
125 126 111 112 127 128 113 114 129 
130 115 116 131 132 173 174 179 180 
175 176 181 182 177 178 183 184 139 
140 155 156 141 142 157 158 143 144 
159 160 145 146 153 154 147 148 151 
152 185 186 191 192 187 188 193 194 
189 190 195 196 119 120 149 150 117 
118 137 138 105 106 135 136 103 104 
133 134 101 102 121 122 197 198 203 
204 199 200 205 206 201 202 207 208 
1013 1015 1499 2242 1019 1021 1759 1023 2645 
2628 2470 280 1411 1832 2483 1732 1774 263 
3387 1504 209 210 215 216 211 212 217 
218 213 214 219 220 2788 1016 1009 9 
1779 623 622 1798 1780 531 292 610 1775 
632 1816 1665 62 1793 73 1809 791 221 
222 227 228 223 224 229 230 225 226 
231 232 1803 1529 2487 1776 571 1794 369 
1046 1646 792 390 1657 354 33 13 586 
1101 19 233 234 239 240 235 236 241 
242 237 238 243 244 2790 2753 1592 2748 
2531 2769 540 43 260 320 570 1099 1452 
1395 1576 333 556 1129 313 1088 1267 245 
246 251 252 247 248 253 254 249 250 
255 256 614 96 611 1017 564 1051 1293 
554 1614 1501 1588 1599 1453 1135 1295 1110 
1325 1482 1305 1597 1121 407 408 413 414 
409 410 415 416 411 412 417 418 655 
1058 1778 1745 36 1640 330 542 1261 1084 
506 1147 1118 355 1423 1373 1496 1555 419 
420 425 426 421 422 427 428 423 424 
429 430 1730 86 612 2738 1610 270 301 
1815 1647 1090 1091 1059 1645 1119 381 1133 
1572 1321 1541 1374 431 432 437 438 433 
434 439 440 435 436 441 442 781 1022 
782 1782 1637 520 1560 2806 1092 1593 1556 
1152 592 1257 1134 1320 1120 1478 1539 1441 
443 444 449 450 445 446 451 452 447 
448 453 454 654 590 1020 400 1323 1081 
1651 1633 1830 314 1396 1551 1281 1437 1351 
1304 1137 1510 1336 1480 455 456 461 462 
457 458 463 464 459 460 465 466 1012 
644 1725 1656 1598 1438 560 1532 1140 523 
1253 1525 1149 1136 1365 1258 1479 1394 1419 
467 468 473 474 469 470 475 476 471 
472 477 478 1143 2471 7 1483 1791 63 
1611 534 304 1689 1512 284 1537 1289 1495 
1274 1450 479 480 485 486 481 482 487 
488 483 484 489 490 1618 1018 1763 555 
396 1338 550 1586 1521 1688 1108 1262 1291 
1534 1616 1489 1150 1273 1311 491 492 493 
494 495 496 312 2674 2658 34 1543 1368 
2770 2721 1639 1087 1264 1369 1506 1282 1565 
1612 1254 1335 1491 1440 657 658 663 664 
659 660 665 666 661 662 667 668 2725 
1770 2034 1761 55 1813 545 1547 1107 1155 
1063 1141 575 1574 1070 1297 1269 1284 669 
670 675 676 671 672 677 678 673 674 
679 680 2706 1814 1487 510 1728 1672 2802 
45 1123 1049 1792 275 1114 1399 90 1600 
1430 1385 1475 1476 681 682 687 688 683 
684 689 690 685 686 691 692 501 1622 
1784 392 2517 1797 1735 1661 1795 282 530 
30 515 346 1428 60 505 1115 1609 693 
694 699 700 695 696 701 702 697 698 
703 704 1533 1986 1726 53 380 331 302 
66 97 1590 1760 653 500 2805 760 546 
601 1042 1631 1662 705 706 711 712 707 
708 713 714 709 710 715 716 646 1577 
2678 2 1738 1484 1764 1787 1743 1041 633 
772 1398 76 1062 1605 1039 350 717 718 
723 724 719 720 725 726 721 722 727 
728 1652 1729 1014 1 1756 2018 1769 1786 
1749 581 1800 1054 44 1566 521 1796 38 
1079 1157 1678 729 730 735 736 731 732 
737 738 733 734 739 740 5 4 11 
21 31 1742 6 1767 1531 1680 1080 1687 
261 1762 321 48 98 1549 1142 40 741 
742 747 748 743 744 749 750 745 746 
751 752 41 61 91 1741 512 1664 2610 
1650 1620 1518 391 1783 532 361 1744 643 
58 273 551 1801 913 914 919 920 915 
916 921 922 917 918 923 924 357 257 
1693 1677 1383 2580 2564 594 1503 1675 1723 
2547 553 1746 1765 1772 1715 1731 274 925 
926 931 932 927 928 933 934 929 930 
935 936 596 2066 507 397 547 1098 71 
20 1128 8 1033 1673 1397 1038 1563 1514 
393 1517 1739 605 937 938 943 944 939 
940 945 946 941 942 947 948 1026 597 
647 1607 557 317 1558 327 1559 22 1621 
514 10 1578 1488 1035 1027 1065 949 950 
955 956 951 952 957 958 953 954 959 
960 577 753 783 793 527 72 617 558 
348 297 627 537 754 587 1028 598 377 
1112 517 51 961 962 967 968 963 964 
969 970 965 966 971 972 774 803 833 
843 813 773 814 844 784 823 845 804 
846 764 847 638 834 763 848 973 974 
979 980 975 976 981 982 977 978 983 
984 859 860 875 876 861 862 877 878 
863 864 879 880 865 866 881 882 867 
868 883 884 985 986 991 992 987 988 
993 994 989 990 995 996 891 892 907 
908 893 894 909 910 895 896 911 912 
897 898 905 906 899 900 903 904 997 
998 1003 1004 999 1000 1005 1006 1001 1002 
1007 1008 871 872 901 902 869 870 889 
890 857 858 887 888 855 856 885 886 
854 853 874 873 1159 1160 1174 1175 1161 
1162 1176 1177 1163 1164 1178 1179 1165 1166 
1180 1181 1167 1168 1182 1183 1169 1170 1184 
1185 1171 1172 1186 1187 1173 1188 1189 1190 
1204 1205 1191 1192 1206 1207 1193 1194 1208 
1209 1195 1196 1210 1211 1197 1198 1212 1213 
1199 1200 1214 1215 1201 1202 1216 1217 1203 
1218 1219 1220 1234 1235 1221 1222 1236 1237 
1223 1224 1238 1239 1225 1226 1240 1241 1227 
1228 1242 1243 1229 1230 1244 1245 1231 1232 
1246 1247 1233 1248 2546 2728 771 1808 370 
54 65 1788 2799 3374 621 1748 642 582 
3229 1818 2781 652 1992 1158 1064 2818 3462 
2715 1810 559 2795 1777 3384 1833 770 1683 
759 1790 1602 1307 519 85 379 1126 1580 
1029 640 334 27 574 1044 779 83 271 
499 1591 84 1308 780 801 1826 2821 600 
2808 359 344 503 1276 1043 1076 1519 1486 
88 562 1339 1691 1354 1535 1682 1298 1277 
1069 1381 584 1674 1608 382 1658 1737 1425 
758 1827 1067 82 768 14 1096 1109 1266 
1324 1153 1151 1290 1252 1643 1265 1131 1263 
1294 1310 1094 1259 1124 325 1581 1093 1148 
1125 1596 1296 375 1292 1073 342 1513 651 
339 1104 1359 1139 1371 1275 1372 1524 1456 
1387 1386 1401 1138 1117 1492 345 1573 89 
1520 1095 50 522 1546 1306 812 1642 2534 
403 589 802 1358 1455 1344 1362 1400 1343 
1331 1431 1317 1328 1341 1416 1357 1105 1538 
1554 1632 1102 283 356 366 1089 552 1567 
26 767 1516 1024 1824 2051 516 566 1346 
1345 1375 1329 1347 1330 1348 1378 1302 1569 
1332 1446 1286 1370 285 1477 1568 1409 406 
1628 336 1507 1045 1127 1071 1717 1550 258 
790 35 799 1493 1417 1432 1360 1377 1363 
1392 1364 1318 1333 1349 1342 1314 1384 1285 
1445 1260 1122 1511 1627 1146 266 1100 99 
1669 265 529 1619 1789 259 3415 1509 1389 
1523 1447 1361 1376 1406 1391 1407 1287 1393 
1415 1271 1327 1301 1315 343 1144 376 1156 
1410 303 49 1648 757 2836 93 1050 290 
289 2819 1508 1433 1448 1402 1390 1404 1420 
1334 1379 1270 1350 1601 1421 1316 1603 1625 
1356 1424 1540 395 573 513 1502 524 789 
268 64 399 1485 1785 1561 388 1443 1388 
1494 1418 1403 1405 1451 1449 1299 1458 1429 
1313 1086 1522 525 1061 67 1582 1736 1353 
349 509 620 319 1459 1460 3454 1579 1461 
1442 1408 1434 1435 1436 1481 1312 1272 1355 
1367 1571 1585 1380 1366 262 1552 335 1663 
70 498 1462 1466 28 778 1463 1464 1467 
1468 1465 1469 1268 1256 1288 1422 1303 1490 
1340 1542 1337 1570 1594 1718 1116 1280 329 
2274 533 822 1470 1471 1472 1473 1326 1474 
1283 1255 1319 1505 1414 1300 1526 276 1085 
1553 363 1103 1322 1309 12 788 402 1106 
1068 1694 1695 1699 798 1804 309 1696 1697 
1700 1701 1698 1702 1075 1457 1624 1497 1352 
383 1249 1527 1587 1606 405 535 39 1060 
1251 264 593 585 1703 1707 579 307 1805 
1704 1705 1708 1709 1706 1710 1635 286 1660 
326 1557 1279 305 1604 504 1679 1154 502 
75 316 1536 78 561 583 606 549 1641 
528 1711 1712 800 1823 810 777 1713 811 
1828 1564 374 1113 384 394 1048 1644 306 
544 296 1130 386 1615 1055 77 1584 1056 
624 79 1721 17 1626 1589 569 269 518 
29 2840 1822 1862 809 1843 311 365 1613 
37 340 565 315 404 1145 1132 1629 56 
1040 401 1382 656 626 1530 1074 602 1690 
1053 353 1036 299 619 2830 756 1820 2852 
364 385 511 526 1634 1528 1250 1444 1562 
46 68 1077 1617 1427 322 1072 1751 59 
625 1684 615 1636 1595 373 24 310 1082 
298 599 819 609 1841 1066 1575 591 576 
1111 272 57 635 47 2578 603 1766 2595 
1747 595 352 1655 372 295 2423 1638 1011 
81 497 1025 808 630 2831 832 1848 87 
541 1078 1057 360 1781 634 371 1583 1544 
293 1548 1654 294 1733 1454 1653 1623 100 
1037 1649 1083 267 23 588 92 538 797 
2839 1821 616 1740 1716 69 1771 1685 1412 
1754 332 604 1670 563 362 1722 1724 324 
2338 536 1052 1630 1097 32 308 300 796 
650 578 821 1844 830 1819 1755 1659 80 
1686 323 1671 2503 1545 2629 15 3 1692 
543 1676 1010 1666 18 1030 287 328 42 
378 288 548 787 639 766 618 828 2835 
820 1840 1720 1500 1031 1515 1278 1667 1681 
387 1034 52 1047 1032 367 277 567 318 
278 649 608 629 755 806 776 816 818 
817 1838 1845 2841 16 398 508 337 25 
347 607 368 648 338 775 358 637 628 
805 568 765 786 815 839 840 841 807 
831 842 1835 1836 1852 1842 1839 794 795 
850 849 824 835 851 852 785 825 1849 
1850 836 826 837 1851 1853 827 838 1854 
1855 829 1856 1857 1834 1858 1859 1837 1860 
1861 1863 1864 1865 1879 1880 1866 1867 1881 
1882 1868 1869 1883 1884 1870 1871 1885 1886 
1872 1873 1887 1888 1874 1875 1889 1890 1876 
1877 1891 1892 1878 1893 1894 1895 1909 1910 
1896 1897 1911 1912 1898 1899 1913 1914 1900 
1901 1915 1916 1902 1903 1917 1918 1904 1905 
1919 1920 1906 1907 1921 1922 1908 1923 1924 
1925 1939 1940 1926 1927 1941 1942 1928 1929 
1943 1944 1930 1931 1945 1946 1932 1933 1947 
1948 1934 1935 1949 1950 1937 1952 1951 1936 
1938 1953 2114 2115 2130 2131 2116 2117 2132 
2133 2118 2119 2134 2135 2120 2121 2136 2137 
2122 2123 2138 2139 2124 2125 2140 2141 2126 
2127 2142 2143 2128 2129 2144 2145 2146 2147 
2162 2163 2148 2149 2164 2165 2150 2151 2166 
2167 2152 2153 2168 2169 2154 2155 2170 2171 
2156 2157 2172 2173 2158 2159 2174 2175 2160 
2161 2176 2177 2178 2179 2194 2195 2180 2181 
2196 2197 2182 2183 2198 2199 2184 2185 2200 
2201 2186 2187 2202 2203 2188 2189 2204 2205 
2190 2191 2206 2207 2192 2193 2208 2209 1954 
1799 74 2984 281 3348 2743 3388 3406 2053 
3188 3278 3299 94 2779 2976 3433 2797 3128 
3367 2793 1831 2765 2791 2307 3425 645 351 
2810 2807 1758 1829 631 3137 3482 389 641 
291 1807 3474 3473 3472 769 580 2809 2637 
1812 3464 3339 3446 2812 2009 3259 3272 3157 
3455 2823 3333 2068 3059 3260 2560 3418 3417 
2814 3378 279 3279 2828 2801 1973 2988 2605 
3012 2373 3057 3343 2607 3185 2030 2057 2046 
3245 2656 2086 3362 3364 2665 2472 2228 3436 
2613 3383 2815 2796 2651 2998 2816 3010 2592 
2010 3253 2626 3145 3312 3043 3005 2272 2108 
3195 3042 3044 2221 2089 2572 2106 2992 2223 
2224 3013 2015 2480 2270 2040 2464 2054 3369 
2544 1439 3269 3255 2012 2455 3130 2044 3035 
3226 2039 2101 3212 2222 2337 2375 2490 2293 
2063 2277 2529 2241 2358 2474 2554 2058 2094 
3203 2553 3182 3334 2837 1806 2650 2259 2565 
2729 3165 3004 2497 2321 2424 2096 2574 2103 
2342 2405 2425 2400 2367 2334 2318 2350 2399 
2387 2415 2366 2540 2522 3283 1980 3407 2418 
3284 3447 3125 2985 3282 2757 2496 3133 2073 
2112 2100 2456 2314 2421 2297 2328 2299 2298 
2296 2317 2329 2312 2541 2333 2525 2332 2383 
95 1847 2635 2036 2826 2502 2506 3134 3316 
3187 2357 2403 3292 2599 2494 3204 2300 3132 
2302 2281 2313 2265 2295 2343 2327 2311 2360 
2345 2361 2462 2315 3475 3048 2825 2834 3049 
3050 2371 3359 2323 2014 2028 3242 2262 3213 
3244 2521 2282 2557 2249 2310 2280 2336 2218 
2426 2378 2394 2330 2344 2316 2331 3303 1757 
3209 3309 3427 3174 2986 3492 1987 3144 2623 
3326 2016 2038 2075 2235 2308 2401 2283 2250 
2248 2285 2393 2264 2395 2377 2458 2349 2348 
2347 2364 3030 2430 2431 2432 1994 2433 2434 
3437 2975 3158 3154 3003 2419 2017 3345 3054 
2047 2352 2555 2368 3214 2234 2236 2266 2380 
2279 2427 2379 2231 2346 2363 2362 2435 2436 
2440 2441 2437 2438 2442 2443 2439 2444 3465 
3159 2067 2669 2528 3183 2239 2301 2284 2320 
2542 2233 2410 2411 2254 2413 2397 2412 2381 
2445 2446 2447 2448 2449 3483 2829 3398 2972 
3015 2510 2563 2763 2088 2351 2324 2585 2247 
2219 2267 2252 2294 2326 2428 2396 2680 2681 
2686 2687 2682 2683 2688 2689 2684 2685 2690 
1846 3389 3160 2625 1989 3034 3135 3045 3267 
2288 2420 2341 2511 2479 2566 2303 2416 2353 
2107 2286 2255 2253 2691 2692 2696 2697 2693 
2694 2698 2699 2695 2700 3456 2618 3060 2643 
3246 3014 3403 3216 2591 2559 2359 2319 3323 
2384 2292 2229 2102 2335 2526 2055 2369 2069 
2586 1825 2701 2702 2705 3484 2817 2824 2703 
2704 3349 3169 2020 2983 2226 3352 2772 3227 
2271 2005 2275 2113 2407 3262 2060 2062 2214 
2577 2408 2571 2087 2570 3002 2505 2385 2832 
3466 3485 3476 3289 2973 3139 1965 2099 2670 
2718 3276 2029 3365 2025 2602 2211 3126 3233 
2061 2537 2463 3153 3236 3202 2071 2072 2245 
2049 3438 3189 2833 3178 3457 3221 2535 1976 
2616 2649 3140 3205 3206 2659 2762 2007 3393 
3176 3016 3297 3337 2004 2582 3235 2545 2575 
2244 2097 2289 2608 2230 2080 2556 3280 2827 
3199 3495 2339 2019 2987 2673 2609 2002 2485 
3375 3175 3053 3275 2759 1997 3207 3423 3287 
3193 2766 2256 3332 2023 2603 3052 2543 3006 
3313 2993 3172 3408 3170 3496 3329 2978 1981 
1974 3179 2486 3304 3335 2033 2746 2498 3217 
2737 3024 3286 2011 3037 3422 2013 572 3019 
3394 3026 3396 3177 2820 3502 3477 3310 3379 
3009 3190 1990 1985 2549 2666 1977 2468 3382 
2484 2466 3336 2719 3366 3376 2751 3395 3356 
3166 2747 1964 3307 2764 2773 1995 3493 3494 
2843 3428 3219 3180 3281 2488 2999 2619 2990 
2655 2452 2667 2642 2630 3196 2451 2516 2749 
2515 3266 3354 3306 2787 2778 2716 2050 3412 
2774 3247 2771 2862 3399 3486 2845 3419 3300 
3448 3400 3311 3250 1982 3230 2356 3181 2981 
1975 2639 2354 2653 2962 2713 3302 3344 2730 
2597 3372 3392 2648 2641 2594 2707 3373 1972 
3402 2847 2846 3506 3504 3467 3487 3370 3320 
3409 3390 3261 3449 3000 3360 3301 3168 2989 
3161 3021 3171 2969 3210 3191 1413 2003 2726 
3131 2390 2624 3285 3051 2842 2850 2856 2844 
2849 3497 3513 3498 3478 3458 3505 3439 3468 
3499 3489 3330 3429 3200 3410 3290 3350 3270 
3421 3040 3251 3430 3240 3151 2851 2838 2853 
2848 2854 2855 3512 3503 2857 2858 3514 2859 
3515 2860 3516 3507 2861 2863 3517 3488 3508 
2864 2865 3518 3509 3522 3523 3469 3519 3510 
3524 3459 3525 2866 2867 2882 2883 2868 2869 
2884 2885 2870 2871 2886 2887 2872 2873 2888 
2889 2874 2875 2890 2891 2876 2877 2892 2893 
2878 2879 2894 2895 2880 2881 2896 2897 2898 
2899 2914 2915 2900 2901 2916 2917 2902 2903 
2918 2919 2904 2905 2920 2921 2906 2907 2922 
2923 2908 2909 2924 2925 2910 2911 2926 2927 
2912 2913 2928 2929 2930 2931 2946 2947 2932 
2933 2948 2949 2934 2935 2950 2951 2936 2937 
2952 2953 2938 2939 2954 2955 2940 2941 2956 
2957 2959 2958 2943 2942 2960 2961 2945 2944 
3062 3063 3078 3079 3064 3065 3080 3081 3066 
3067 3082 3083 3068 3069 3084 3085 3070 3071 
3086 3087 3592 3593 3598 3599 3594 3595 3600 
3601 3596 3597 3602 3603 3094 3095 3110 3111 
3096 3097 3112 3113 3098 3099 3114 3115 3100 
3101 3116 3117 3102 3103 3118 3119 3604 3605 
3610 3611 3606 3607 3612 3613 3608 3609 3614 
3615 3090 3091 3120 3121 3088 3089 3108 3109 
3076 3077 3106 3107 3074 3075 3104 3105 3072 
3073 3092 3093 3616 3617 3622 3623 3618 3619 
3624 3625 3620 3621 3626 3627 1768 539 2800 
1752 3318 2785 2731 2995 1727 3056 2742 3368 
2727 1955 2783 1668 2662 1956 2644 2454 1961 
1962 1967 3628 3629 3634 3635 3630 3631 3636 
3637 3632 3633 3638 3639 2614 3032 3129 3358 
1979 2994 3215 3397 3319 3377 2782 761 1959 
1957 1958 2710 1968 3640 3641 3646 3647 3642 
3643 3648 3649 3644 3645 3650 3651 2638 2043 
3353 2593 2979 2664 3149 2081 3028 2811 2212 
1811 3198 2243 3338 3416 3249 3424 2548 2098 
2082 3652 3653 3658 3659 3654 3655 3660 3661 
3656 3657 3662 3663 3163 3296 3264 3025 1983 
2406 2391 3164 2045 2636 3223 2741 2567 3443 
2822 3138 3442 1498 2963 3664 3665 3670 3671 
3666 3667 3672 3673 3668 3669 3674 3675 2600 
2215 2077 2091 2240 3237 2309 2261 2568 2997 
3124 3463 3173 3426 3295 2767 1817 2803 2786 
3676 3677 3682 3683 3679 3685 3684 3678 3687 
3686 3681 3680 2246 3192 2273 2325 2111 2093 
2291 2520 2588 3294 3315 3162 3258 2668 3047 
2813 1714 3218 3452 2654 3688 3689 3694 3695 
3690 3691 3696 3697 3692 3693 3698 3699 2539 
2508 2414 2076 3186 2457 2269 2500 2671 2660 
2027 2501 2031 3142 3022 2006 2622 3414 3700 
3701 3706 3707 3702 3703 3708 3709 3704 3705 
3710 3711 2523 2478 2473 2074 2092 2109 2524 
3023 2070 2551 3305 3363 3254 2041 2776 2001 
3435 3146 2736 3712 3713 3718 3719 3714 3715 
3720 3721 3716 3717 3722 3723 2493 2475 2388 
2491 2217 2260 2392 3033 2386 2026 2581 2583 
2552 2213 3147 3445 2768 2732 1960 3724 3725 
3730 3731 3726 3727 3732 3733 3728 3729 3734 
3735 2509 2398 2429 2382 2477 2389 2110 2409 
2340 2376 2032 2305 2606 2558 3122 2569 2996 
3444 3148 3156 1970 3736 3737 3742 3743 3738 
3739 3744 3745 3740 3741 3746 3747 2422 2476 
2365 2104 2492 2216 2238 2504 2465 2232 2532 
2527 1998 2640 3243 3017 1999 3277 1773 3748 
3749 3754 3755 3750 3751 3756 3757 3752 3753 
3758 3759 2460 2278 2461 2507 2090 2370 2263 
2287 2538 2587 2417 3123 2579 2000 3039 3058 
762 3434 2744 2258 3760 3761 3766 3767 3762 
3763 3768 3769 3764 3765 3770 3771 2489 2459 
2402 2304 2481 2237 3322 3155 2584 2227 3029 
2550 3036 3298 1753 3038 1802 3773 3772 3774 
3775 3776 3777 2251 2105 2404 2220 2573 3232 
2495 2042 2021 2561 3027 3208 2008 3234 2754 
3385 2355 2780 3778 3779 3784 3785 3780 3781 
3786 3787 3782 3783 3788 3789 2268 2589 3222 
2064 2056 3314 2276 2652 1991 2633 3225 2513 
3018 2601 3386 3453 3268 2777 2708 2761 2530 
3790 3791 3796 3797 3792 3793 3798 3799 3794 
3795 3800 3801 3324 2059 3274 2225 3342 2083 
3263 3194 2095 3308 3143 2784 3007 3239 3357 
3008 2740 2717 1963 3802 3803 3808 3809 3804 
3805 3810 3811 3806 3807 3812 3813 2085 2048 
2065 3184 3293 3273 2079 2631 2576 3252 3055 
341 3257 1734 3256 2450 2733 2469 2723 2965 
2966 3814 3815 3820 3821 3816 3817 3822 3823 
3818 3819 3824 3825 3152 3224 2257 1993 2798 
2024 3167 2794 2374 3248 3328 613 2792 2596 
2739 2621 2967 3826 3827 3832 3833 3828 3829 
3834 3835 3830 3831 3836 3837 2604 3046 2078 
3288 2620 2617 2804 3347 3127 3405 3327 2982 
2677 1426 2755 2970 2971 2968 3838 3839 3844 
3845 3840 3841 3846 3847 3842 3843 3848 3849 
2037 2536 3355 1719 3228 2512 1996 2750 3197 
2775 3404 2752 2632 2084 2714 2661 2533 2712 
2991 2709 3011 3850 3851 3856 3857 3852 3853 
3858 3859 3854 3855 3860 3861 2022 3136 3413 
2758 2722 2724 2789 3432 2290 3317 2679 2734 
2562 3001 3031 3325 3041 3862 3863 3868 3869 
3870 3865 3864 3871 3866 3872 3867 3873 2735 
2745 2453 3238 3346 2612 636 1750 2306 2720 
2756 1971 2482 2977 2964 2467 3201 1969 3061 
3874 3875 3880 3881 3876 3877 3882 3883 3878 
3879 3884 3885 2514 2499 2372 2676 2711 3265 
2663 2760 2647 2657 2611 2672 1984 3211 2210 
2322 3231 3291 2590 3321 3331 3886 3887 3892 
3893 3888 3889 3894 3895 3890 3891 3896 3897 
2646 3271 2615 1966 2598 1988 2519 2627 1978 
2634 2974 2035 2675 3141 3241 3381 2518 3411 
3898 3899 3904 3905 3900 3901 3906 3907 3902 
3903 3908 3909 3391 3341 3340 3020 2052 3401 
3420 3361 3371 3220 3441 3150 3351 3461 2980 
3431 3471 3440 3481 3910 3911 3916 3917 3912 
3913 3918 3919 3914 3915 3920 3921 3526 3479 
3480 3450 3451 3527 3520 3528 3490 3460 3529 
3500 3380 3470 3530 3511 3491 3501 3521 3531 
3922 3923 3928 3929 3924 3925 3930 3931 3926 
3927 3932 3933 3532 3533 3548 3549 3534 3535 
3550 3551 3536 3537 3552 3553 3538 3539 3554 
3555 3540 3541 3556 3557 3934 3935 3940 3941 
3936 3937 3942 3943 3938 3939 3944 3945 3564 
3565 3580 3581 3566 3567 3582 3583 3568 3569 
3584 3585 3570 3571 3586 3587 3572 3573 3588 
3589 3946 3947 3952 3953 3948 3949 3954 3955 
3950 3951 3956 3957 3560 3561 3590 3591 3558 
3559 3578 3579 3546 3547 3576 3577 3544 3545 
3574 3575 3542 3543 3562 3563 3958 3959 3964 
3965 3960 3961 3966 3967 3969 3962 3968 3963 

C_[0] 1 3969 double
0 0 0 0 0 0 0 0 0 
0 0 0 0 0 0 0 0 0 
0 0 0 0 0 0 0 0 0 
0 0 0 0 0 0 0 0 0 
0 0 0 0 0 0 0 0 0 
0 0 0 0 0 0 0 0 0 
0 0 0 0 0 0 0 0 0 
0 0 0 0 0 0 0 0 0 
0 0 0 0 0 0 0 0 0 
0 0 0 0 0 0 0 0 0 
0 0 0 0 0 0 0 0 0 
0 0 0 0 0 0 0 0 0 
0.00144115 0.00274029 0.00940791 0.016685 0.0122718 0.00583367 0.0247512 0.0096742 0.0234126 
0.0302629 0.0159753 0.0474136 0.0143456 0.0573075 0.0244602 0.0563629 0.0910236 0.0284784 
0.0761608 0.0810442 0 0 0 0 0 0 0 
0 0 0 0 0 0.0220465 0.0151912 0.00457279 0.00845391 
0.0427369 0.0332547 0.045485 0.0604178 0.0552004 0.0639231 0.0813604 0.100781 0.0918081 
0.131399 0.0982086 0.143162 0.141776 0.115195 0.177293 0.151201 0.203491 0 
0 0 0 0 0 0 0 0 0 