# vtk DataFile Version 3.0
Generated by LAMMPS
ASCII
DATASET POLYDATA
POINTS 3969 float
-0.607843 -0.607843 0 -0.588235 -0.607843 0 -0.607843 -0.588235 0 
-0.588235 -0.588235 0 -0.568627 -0.607843 0 -0.54902 -0.607843 0 
-0.568627 -0.588235 0 -0.54902 -0.588235 0 -0.529412 -0.607843 0 
-0.509804 -0.607843 0 -0.529412 -0.588235 0 -0.509804 -0.588235 0 
-0.490196 -0.607843 0 -0.470588 -0.607843 0 -0.490196 -0.588235 0 
-0.470588 -0.588235 0 -0.45098 -0.607843 0 -0.431373 -0.607843 0 
-0.45098 -0.588235 0 -0.431373 -0.588235 0 -0.411765 -0.607843 0 
-0.392157 -0.607843 0 -0.411765 -0.588235 0 -0.392157 -0.588235 0 
-0.372549 -0.607843 0 -0.352941 -0.607843 0 -0.372549 -0.588235 0 
-0.352941 -0.588235 0 -0.333333 -0.607843 0 -0.313726 -0.607843 0 
-0.333333 -0.588235 0 -0.313726 -0.588235 0 -0.607843 -0.568627 0 
-0.588235 -0.568627 0 -0.607843 -0.54902 0 -0.588235 -0.54902 0 
-0.568627 -0.568627 0 -0.54902 -0.568627 0 -0.568627 -0.54902 0 
-0.54902 -0.54902 0 -0.529412 -0.568627 0 -0.509804 -0.568627 0 
-0.529412 -0.54902 0 -0.509804 -0.54902 0 -0.490196 -0.568627 0 
-0.470588 -0.568627 0 -0.490196 -0.54902 0 -0.470588 -0.54902 0 
-0.45098 -0.568627 0 -0.431373 -0.568627 0 -0.45098 -0.54902 0 
-0.431373 -0.54902 0 -0.411765 -0.568627 0 -0.392157 -0.568627 0 
-0.411765 -0.54902 0 -0.392157 -0.54902 0 -0.372549 -0.568627 0 
-0.352941 -0.568627 0 -0.352941 -0.54902 0 -0.372549 -0.54902 0 
-0.333333 -0.568627 0 -0.313726 -0.568627 0 -0.313726 -0.54902 0 
-0.333333 -0.54902 0 -0.607843 -0.529412 0 -0.588235 -0.529412 0 
-0.607843 -0.509804 0 -0.588235 -0.509804 0 -0.568627 -0.529412 0 
-0.54902 -0.529412 0 -0.568627 -0.509804 0 -0.54902 -0.509804 0 
-0.529412 -0.529412 0 -0.509804 -0.529412 0 -0.529412 -0.509804 0 
-0.509804 -0.509804 0 -0.470588 -0.509804 0 -0.490196 -0.509804 0 
-0.470588 -0.529412 0 -0.490196 -0.529412 0 -0.431373 -0.509804 0 
-0.45098 -0.509804 0 -0.431373 -0.529412 0 -0.45098 -0.529412 0 
-0.392157 -0.509804 0 -0.411765 -0.509804 0 -0.392157 -0.529412 0 
-0.411765 -0.529412 0 -0.352941 -0.509804 0 -0.372549 -0.509804 0 
-0.352941 -0.529412 0 -0.372549 -0.529412 0 -0.313726 -0.509804 0 
-0.333333 -0.509804 0 -0.313726 -0.529412 0 -0.333333 -0.529412 0 
-0.607843 -0.490196 0 -0.588235 -0.490196 0 -0.607843 -0.470588 0 
-0.588235 -0.470588 0 -0.568627 -0.490196 0 -0.54902 -0.490196 0 
-0.568627 -0.470588 0 -0.54902 -0.470588 0 -0.529412 -0.490196 0 
-0.509804 -0.490196 0 -0.529412 -0.470588 0 -0.509804 -0.470588 0 
-0.5 -0.491834 0 -0.47892 -0.499934 0 -0.484507 -0.476797 0 
-0.462404 -0.474846 0 -0.461628 -0.485936 0 -0.449224 -0.5 0 
-0.441583 -0.476361 0 -0.425136 -0.473776 0 -0.424543 -0.499806 0 
-0.416022 -0.484864 0 -0.400613 -0.495806 0 -0.404716 -0.468094 0 
-0.388121 -0.475128 0 -0.37719 -0.499089 0 -0.351029 -0.5 0 
-0.371176 -0.481789 0 -0.359612 -0.473061 0 -0.330625 -0.495041 0 
-0.34494 -0.466386 0 -0.33153 -0.476728 0 -0.316919 -0.469845 0 
-0.607843 -0.45098 0 -0.588235 -0.45098 0 -0.607843 -0.431373 0 
-0.588235 -0.431373 0 -0.568627 -0.45098 0 -0.54902 -0.45098 0 
-0.568627 -0.431373 0 -0.54902 -0.431373 0 -0.529412 -0.45098 0 
-0.509804 -0.45098 0 -0.529412 -0.431373 0 -0.509804 -0.431373 0 
-0.475889 -0.458476 0 -0.489189 -0.444431 0 -0.5 -0.463141 0 
-0.5 -0.42856 0 -0.474298 -0.42626 0 -0.464946 -0.443905 0 
-0.450822 -0.456112 0 -0.45762 -0.423888 0 -0.437436 -0.446079 0 
-0.441023 -0.426051 0 -0.421974 -0.453216 0 -0.411916 -0.438072 0 
-0.396056 -0.446901 0 -0.380697 -0.45707 0 -0.382301 -0.432318 0 
-0.366547 -0.447029 0 -0.360148 -0.430749 0 -0.345447 -0.448155 0 
-0.330827 -0.441023 0 -0.32181 -0.424969 0 -0.314787 -0.450667 0 
-0.607843 -0.411765 0 -0.588235 -0.411765 0 -0.607843 -0.392157 0 
-0.588235 -0.392157 0 -0.568627 -0.411765 0 -0.54902 -0.411765 0 
-0.568627 -0.392157 0 -0.54902 -0.392157 0 -0.529412 -0.411765 0 
-0.509804 -0.411765 0 -0.529412 -0.392157 0 -0.509804 -0.392157 0 
-0.48738 -0.412939 0 -0.483034 -0.396622 0 -0.497886 -0.386022 0 
-0.466457 -0.396653 0 -0.451935 -0.401647 0 -0.436231 -0.399757 0 
-0.424941 -0.421949 0 -0.399675 -0.421487 0 -0.414257 -0.407897 0 
-0.425181 -0.386646 0 -0.407826 -0.38517 0 -0.394167 -0.402763 0 
-0.376803 -0.412726 0 -0.384812 -0.386602 0 -0.362667 -0.407419 0 
-0.352775 -0.384923 0 -0.344227 -0.421474 0 -0.342087 -0.403142 0 
-0.324606 -0.406215 0 -0.607843 -0.372549 0 -0.588235 -0.372549 0 
-0.607843 -0.352941 0 -0.588235 -0.352941 0 -0.568627 -0.372549 0 
-0.54902 -0.372549 0 -0.568627 -0.352941 0 -0.54902 -0.352941 0 
-0.529412 -0.372549 0 -0.509804 -0.372549 0 -0.529412 -0.352941 0 
-0.509804 -0.352941 0 -0.47688 -0.375892 0 -0.482956 -0.361492 0 
-0.497095 -0.351599 0 -0.445709 -0.377304 0 -0.459327 -0.369185 0 
-0.45632 -0.349393 0 -0.435026 -0.363391 0 -0.419031 -0.362982 0 
-0.408314 -0.346424 0 -0.399577 -0.369104 0 -0.390402 -0.347581 0 
-0.368178 -0.384222 0 -0.380572 -0.364804 0 -0.363888 -0.357488 0 
-0.320475 -0.384281 0 -0.335537 -0.3787 0 -0.348814 -0.360411 0 
-0.33179 -0.356546 0 -0.313817 -0.361766 0 -0.607843 -0.333333 0 
-0.588235 -0.333333 0 -0.607843 -0.313726 0 -0.588235 -0.313726 0 
-0.568627 -0.333333 0 -0.54902 -0.333333 0 -0.568627 -0.313726 0 
-0.54902 -0.313726 0 -0.529412 -0.333333 0 -0.509804 -0.333333 0 
-0.529412 -0.313726 0 -0.509804 -0.313726 0 -0.469766 -0.342027 0 
-0.480411 -0.331465 0 -0.478652 -0.311425 0 -0.495376 -0.319156 0 
-0.440981 -0.339947 0 -0.449464 -0.322995 0 -0.462676 -0.313483 0 
-0.437106 -0.309838 0 -0.424714 -0.337755 0 -0.417824 -0.320307 0 
-0.399195 -0.325777 0 -0.374751 -0.338056 0 -0.363977 -0.319126 0 
-0.383067 -0.319088 0 -0.354619 -0.33616 0 -0.326323 -0.316979 0 
-0.344595 -0.313509 0 -0.337244 -0.33568 0 -0.318442 -0.338817 0 
-0.607843 -0.294118 0 -0.588235 -0.294118 0 -0.607843 -0.27451 0 
-0.588235 -0.27451 0 -0.568627 -0.294118 0 -0.54902 -0.294118 0 
-0.568627 -0.27451 0 -0.54902 -0.27451 0 -0.529412 -0.294118 0 
-0.509804 -0.294118 0 -0.529412 -0.27451 0 -0.509804 -0.27451 0 
-0.482738 -0.268581 0 -0.499304 -0.287755 0 -0.481493 -0.287886 0 
-0.465154 -0.287195 0 -0.438007 -0.281297 0 -0.449597 -0.293102 0 
-0.422675 -0.271713 0 -0.40003 -0.267374 0 -0.410714 -0.285498 0 
-0.390614 -0.288583 0 -0.422571 -0.300772 0 -0.40101 -0.305591 0 
-0.3723 -0.276113 0 -0.376524 -0.297679 0 -0.357886 -0.297489 0 
-0.354266 -0.277703 0 -0.327408 -0.280202 0 -0.337693 -0.294209 0 
-0.316528 -0.301756 0 -0.607843 -0.254902 0 -0.588235 -0.254902 0 
-0.607843 -0.235294 0 -0.588235 -0.235294 0 -0.568627 -0.254902 0 
-0.54902 -0.254902 0 -0.568627 -0.235294 0 -0.54902 -0.235294 0 
-0.529412 -0.254902 0 -0.509804 -0.254902 0 -0.529412 -0.235294 0 
-0.509804 -0.235294 0 -0.473893 -0.248998 0 -0.493658 -0.253393 0 
-0.462041 -0.265477 0 -0.446038 -0.261922 0 -0.42689 -0.252775 0 
-0.463008 -0.239945 0 -0.44153 -0.242531 0 -0.406263 -0.24951 0 
-0.415622 -0.233332 0 -0.39105 -0.23635 0 -0.385027 -0.260419 0 
-0.367204 -0.255544 0 -0.376344 -0.233764 0 -0.353373 -0.246356 0 
-0.342361 -0.264576 0 -0.325352 -0.258776 0 -0.336897 -0.238228 0 
-0.319722 -0.239425 0 -0.607843 -0.215686 0 -0.588235 -0.215686 0 
-0.607843 -0.196078 0 -0.588235 -0.196078 0 -0.568627 -0.215686 0 
-0.54902 -0.215686 0 -0.568627 -0.196078 0 -0.54902 -0.196078 0 
-0.529412 -0.215686 0 -0.509804 -0.215686 0 -0.529412 -0.196078 0 
-0.509804 -0.196078 0 -0.496189 -0.229196 0 -0.479681 -0.218398 0 
-0.46636 -0.216119 0 -0.47217 -0.190649 0 -0.48879 -0.202175 0 
-0.448918 -0.224823 0 -0.4282 -0.221176 0 -0.443698 -0.205393 0 
-0.42876 -0.195533 0 -0.455689 -0.191543 0 -0.398457 -0.218156 0 
-0.41348 -0.209789 0 -0.399821 -0.190229 0 -0.360544 -0.226101 0 
-0.385803 -0.203932 0 -0.370995 -0.20952 0 -0.351706 -0.202503 0 
-0.341454 -0.219022 0 -0.325612 -0.211761 0 -0.337476 -0.190909 0 
-0.320904 -0.191532 0 -0.309669 -0.224386 0 -0.607843 -0.176471 0 
-0.588235 -0.176471 0 -0.607843 -0.156863 0 -0.588235 -0.156863 0 
-0.568627 -0.176471 0 -0.54902 -0.176471 0 -0.568627 -0.156863 0 
-0.54902 -0.156863 0 -0.529412 -0.176471 0 -0.509804 -0.176471 0 
-0.529412 -0.156863 0 -0.509804 -0.156863 0 -0.496378 -0.186105 0 
-0.474368 -0.171378 0 -0.464906 -0.152975 0 -0.492362 -0.166153 0 
-0.436771 -0.178958 0 -0.455362 -0.17 0 -0.439783 -0.155624 0 
-0.412653 -0.181391 0 -0.423202 -0.164392 0 -0.392844 -0.16652 0 
-0.40698 -0.155246 0 -0.365943 -0.186912 0 -0.381661 -0.180196 0 
-0.350886 -0.175736 0 -0.366463 -0.162212 0 -0.342327 -0.158952 0 
-0.327196 -0.167876 0 -0.311185 -0.169859 0 -0.607843 -0.137255 0 
-0.588235 -0.137255 0 -0.607843 -0.117647 0 -0.588235 -0.117647 0 
-0.568627 -0.137255 0 -0.54902 -0.137255 0 -0.568627 -0.117647 0 
-0.54902 -0.117647 0 -0.529412 -0.137255 0 -0.509804 -0.137255 0 
-0.529412 -0.117647 0 -0.509804 -0.117647 0 -0.478298 -0.142341 0 
-0.464576 -0.129954 0 -0.497441 -0.14158 0 -0.486524 -0.121789 0 
-0.446034 -0.1396 0 -0.430336 -0.120187 0 -0.450575 -0.119291 0 
-0.423968 -0.139467 0 -0.393913 -0.142466 0 -0.411037 -0.129161 0 
-0.399591 -0.114285 0 -0.376838 -0.149835 0 -0.354539 -0.144022 0 
-0.382998 -0.124877 0 -0.367984 -0.126746 0 -0.313514 -0.147947 0 
-0.345032 -0.129227 0 -0.32916 -0.140421 0 -0.324236 -0.120911 0 
-0.607843 -0.0980392 0 -0.588235 -0.0980392 0 -0.607843 -0.0784314 0 
-0.588235 -0.0784314 0 -0.568627 -0.0980392 0 -0.54902 -0.0980392 0 
-0.568627 -0.0784314 0 -0.54902 -0.0784314 0 -0.529412 -0.0980392 0 
-0.509804 -0.0980392 0 -0.529412 -0.0784314 0 -0.509804 -0.0784314 0 
-0.473744 -0.101186 0 -0.492871 -0.107601 0 -0.477774 -0.0785094 0 
-0.494614 -0.0860346 0 -0.459204 -0.103287 0 -0.439525 -0.0960604 0 
-0.441248 -0.0783216 0 -0.460582 -0.0803256 0 -0.421573 -0.105569 0 
-0.403026 -0.0939344 0 -0.421898 -0.0846222 0 -0.387419 -0.080658 0 
-0.356421 -0.111125 0 -0.385232 -0.101622 0 -0.366708 -0.0971933 0 
-0.369611 -0.0765181 0 -0.351818 -0.084084 0 -0.338462 -0.105366 0 
-0.312622 -0.109266 0 -0.329999 -0.0917502 0 -0.31295 -0.0886633 0 
-0.607843 -0.0588235 0 -0.588235 -0.0588235 0 -0.607843 -0.0392157 0 
[...]
POINT_DATA 3969
FIELD FieldData 5
id 1 3969 int
161 162 167 168 163 164 169 170 165 
166 171 172 107 108 123 124 109 110 
125 126 111 112 127 128 113 114 129 
130 115 116 131 132 173 174 179 180 
175 176 181 182 177 178 183 184 139 
140 155 156 141 142 157 158 143 144 
159 160 145 146 153 154 147 148 151 
152 185 186 191 192 187 188 193 194 
189 190 195 196 119 120 149 150 117 
118 137 138 105 106 135 136 103 104 
133 134 101 102 121 122 197 198 203 
204 199 200 205 206 201 202 207 208 
1013 1015 1499 2242 1019 1021 1759 2628 1023 
2645 2470 280 1832 1411 2483 1732 3387 263 
1504 771 1808 209 210 215 216 211 212 
217 218 213 214 219 220 2788 1016 1009 
9 622 623 1779 1798 1780 292 531 1775 
1816 1774 62 1793 1809 770 759 1602 1790 
221 222 227 228 223 224 229 230 225 
226 231 232 1803 1529 2487 1794 571 1046 
610 1665 632 390 354 13 73 586 791 
344 1683 1276 1076 233 234 239 240 235 
236 241 242 237 238 243 244 1776 2790 
1592 1646 369 2531 792 1657 1395 33 1129 
19 1101 1109 1043 503 1324 1151 1252 245 
246 251 252 247 248 253 254 249 250 
255 256 2769 2753 2748 614 320 260 540 
1099 570 1576 556 1088 1267 313 1266 1139 
1104 1153 1290 407 408 413 414 409 410 
415 416 411 412 417 418 611 1017 96 
564 1614 43 1588 1295 1453 1110 1452 333 
1121 1597 1305 1482 1344 1359 1371 419 420 
425 426 421 422 427 428 423 424 429 
430 1778 655 1293 1051 1501 1745 554 1135 
1599 1118 1325 1496 355 1373 1455 1358 1555 
1346 431 432 437 438 433 434 439 440 
435 436 441 442 86 1058 36 1730 2738 
330 1084 1640 542 1610 1147 1261 1090 1423 
506 1119 1321 1572 1374 1541 1441 1345 443 
444 449 450 445 446 451 452 447 448 
453 454 1022 612 781 782 270 1815 301 
1647 1091 1645 1059 1133 381 1320 1257 1120 
1478 1539 455 456 461 462 457 458 463 
464 459 460 465 466 654 1782 1020 400 
520 1560 2806 1637 1092 1593 1556 592 1134 
1152 1281 1510 1437 1137 1336 467 468 473 
474 469 470 475 476 471 472 477 478 
590 1012 644 1725 1081 1651 1830 1598 1323 
314 1633 1551 1304 1396 1351 1149 1136 1525 
1479 1394 1419 479 480 485 486 481 482 
487 488 483 484 489 490 1143 2471 7 
1656 560 1438 1791 1532 1140 523 534 1365 
1253 284 1537 1258 1512 1274 1289 491 492 
493 494 495 496 1018 1618 1763 312 63 
1611 396 550 1483 1689 555 304 1262 1586 
1534 1291 1150 657 658 663 664 659 660 
665 666 661 662 667 668 2034 2658 2674 
1368 2721 34 1338 1543 1264 1087 1688 1521 
1369 1506 1108 1616 1565 1612 1491 1282 1489 
669 670 675 676 671 672 677 678 673 
674 679 680 1770 2725 2706 2770 1547 1761 
1813 1639 545 1063 1155 1070 1107 1141 575 
1574 1297 1430 681 682 687 688 683 684 
689 690 685 686 691 692 1814 1487 1622 
510 1728 2802 2517 55 1672 45 1792 1049 
1123 1399 275 1114 1475 1600 90 1428 693 
694 699 700 695 696 701 702 697 698 
703 704 501 1784 392 1533 1726 1797 1661 
53 1795 1735 530 30 282 653 346 515 
505 1115 601 705 706 711 712 707 708 
713 714 709 710 715 716 1986 646 1577 
2 331 302 1738 1484 380 66 1590 1760 
1743 97 2805 1398 500 76 760 1042 717 
718 723 724 719 720 725 726 721 722 
727 728 2678 1652 1729 1 1787 1756 2018 
1764 633 772 581 1041 1062 1749 44 1605 
1566 1079 729 730 735 736 731 732 737 
738 733 734 739 740 1014 4 21 31 
1786 5 1742 6 1769 1767 1054 1680 1080 
521 1800 261 1762 1796 321 38 1549 741 
742 747 748 743 744 749 750 745 746 
751 752 41 61 2610 11 1531 1741 512 
1664 1687 1518 1783 48 391 361 1801 551 
98 913 914 919 920 915 916 921 922 
917 918 923 924 357 257 1693 1677 91 
1383 2580 1620 1650 2564 1675 1723 2547 1746 
1744 532 1765 1772 58 925 926 931 932 
927 928 933 934 929 930 935 936 596 
2066 507 547 1098 71 1128 20 594 1033 
1503 8 1673 1038 1563 553 1514 393 1517 
1739 937 938 943 944 939 940 945 946 
941 942 947 948 397 1026 597 647 1607 
557 317 1558 1397 1559 22 1621 514 10 
1578 1488 1035 1027 949 950 955 956 951 
952 957 958 953 954 959 960 577 753 
783 793 527 72 558 348 617 327 627 
537 297 587 1028 598 377 1112 517 51 
961 962 967 968 963 964 969 970 965 
966 971 972 774 803 833 843 813 773 
814 844 754 784 823 845 804 846 764 
847 638 834 763 848 973 974 979 980 
975 976 981 982 977 978 983 984 859 
860 875 876 861 862 877 878 863 864 
879 880 865 866 881 882 867 868 883 
884 985 986 991 992 987 988 993 994 
989 990 995 996 891 892 907 908 893 
894 909 910 895 896 911 912 897 898 
905 906 899 900 903 904 997 998 1003 
1004 999 1000 1005 1006 1001 1002 1007 1008 
871 872 901 902 869 870 889 890 857 
858 887 888 855 856 885 886 873 853 
854 874 1159 1160 1174 1175 1161 1162 1176 
1177 1163 1164 1178 1179 1165 1166 1180 1181 
1167 1168 1182 1183 1169 1170 1184 1185 1171 
1172 1186 1187 1173 1188 1189 1190 1204 1205 
1191 1192 1206 1207 1193 1194 1208 1209 1195 
1196 1210 1211 1197 1198 1212 1213 1199 1200 
1214 1215 1201 1202 1216 1217 1203 1218 1219 
1220 1234 1235 1221 1222 1236 1237 1223 1224 
1238 1239 1225 1226 1240 1241 1227 1228 1242 
1243 1229 1230 1244 1245 1231 1232 1246 1247 
1233 1248 2546 2728 54 65 370 1788 2799 
621 642 3374 1748 3229 1818 582 652 1158 
2781 1992 1064 3462 2818 84 559 1810 2715 
2795 1833 1308 1777 3384 2821 1307 519 1126 
379 1580 1029 640 334 1682 574 27 1277 
1044 779 584 83 1608 499 271 1658 1591 
758 780 1737 801 1826 2808 1827 600 359 
82 768 85 1486 88 562 1339 1691 1535 
1354 1094 1298 1581 1381 1069 1674 1148 382 
1596 1296 1425 375 1067 1073 651 14 1513 
342 1096 339 802 2796 1519 1643 1265 1131 
1263 1294 1310 1124 1259 1138 325 345 1093 
1573 1125 89 1095 522 1520 1292 50 1546 
1642 366 1306 812 26 589 2534 403 1824 
1275 1524 1456 1387 1328 1386 1401 1492 1416 
1357 1538 1117 1632 1102 283 1089 1567 356 
406 1516 552 1628 336 767 1024 1127 790 
516 2051 566 1400 1343 1331 1431 1372 1348 
1317 1341 1105 1569 1446 1286 1554 285 1370 
1342 1477 1409 1568 1445 1507 1045 1260 1146 
1071 1550 99 1627 1717 799 1100 529 1362 
1375 1329 1347 1330 1378 1302 1364 1332 1318 
1333 1314 1349 1384 1285 1415 1122 1511 343 
1327 266 1156 1410 1144 265 1648 757 303 
49 1669 1789 259 3415 1493 1432 1360 1377 
1363 1392 1376 1407 1287 1393 1406 1271 1301 
1270 1316 1315 1540 1603 1625 376 513 395 
573 2836 1502 268 524 290 93 289 1417 
1509 1389 1447 1361 1391 1420 1379 1350 1334 
1421 1601 1356 1313 1424 1086 1522 1061 1353 
67 1582 1736 789 349 509 399 1050 1785 
1523 1508 1448 1480 1390 1402 1404 1451 1405 
1299 1449 1429 1458 525 1367 1571 1380 1366 
262 1552 335 1663 70 2274 620 64 498 
1561 28 1757 3303 1485 388 1495 1433 1443 
1388 1494 1418 1403 1434 1481 1312 1355 1585 
1594 1116 1337 1718 1280 533 778 822 329 
319 1459 1460 3454 1579 1461 1450 1442 1408 
1436 1272 1268 1422 1490 1542 1340 1570 1103 
1553 1085 1309 1322 402 1106 1068 12 1462 
1466 788 798 1463 1464 1467 1468 1465 1469 
1273 1311 1440 1435 1288 1256 1303 1255 1300 
276 1526 1527 535 363 1060 39 264 309 
593 307 1470 1804 1471 1472 1473 1319 1335 
1284 1254 1474 1326 1505 1414 383 1249 1587 
1606 405 1251 502 585 78 1641 1694 1695 
1699 579 549 1805 1696 1697 1700 1701 1698 
1702 1269 1385 1283 1476 1457 1624 1497 1352 
1557 305 1604 1679 504 75 561 316 1536 
583 606 1056 1703 1707 800 528 17 1823 
1704 1705 1708 1709 1706 1710 1075 1609 1635 
60 286 1660 326 1644 1279 306 1154 386 
1055 1615 77 624 79 1626 777 269 569 
1589 1711 1712 810 1822 1713 811 1828 1631 
1564 384 546 1113 394 1048 544 296 1130 
1145 1132 1584 1040 1721 656 626 1530 401 
1690 1053 29 518 809 756 1036 299 2840 
1862 1843 2830 1820 311 365 1662 1039 374 
37 1613 340 565 315 404 46 56 1629 
1382 1617 1427 1074 602 59 353 1636 615 
1595 619 24 310 2852 819 2827 350 1157 
526 1634 364 385 1528 1250 1444 1562 68 
1077 322 603 1072 1751 625 595 1684 373 
295 2423 1082 298 599 81 609 1841 832 
2831 630 1142 1678 591 576 511 1066 1575 
1111 272 57 635 2578 47 1766 2595 1747 
1733 352 372 100 1655 1638 1011 1649 497 
1025 588 808 1848 273 40 643 87 541 
1078 1057 360 1781 634 371 1583 1544 1548 
293 1654 294 1454 1653 1623 324 536 1037 
1083 267 1097 538 23 92 300 796 1821 
2839 797 821 616 1716 274 1715 69 1771 
1685 1412 1754 332 604 1670 563 362 1722 
1724 2338 1630 1666 1052 308 42 32 650 
578 787 1844 830 1819 1740 605 80 1731 
1755 1659 1686 323 1671 2503 1545 2629 3 
15 1692 543 1676 1010 18 287 1030 328 
378 288 755 548 639 766 618 828 2835 
820 1840 1065 1720 1500 1515 1031 1278 1667 
1681 387 1034 52 1047 1032 367 277 567 
318 278 649 568 608 629 776 806 816 
817 818 1838 1845 2841 16 398 508 337 
25 347 607 368 648 338 775 358 637 
628 805 765 786 815 839 840 841 807 
831 842 1835 1836 1852 1842 1839 2850 794 
795 850 849 824 835 851 852 785 825 
1849 1850 836 826 1851 837 1853 827 838 
1854 1855 829 1856 1857 1834 1858 1859 1837 
1860 1861 1863 1864 1865 1879 1880 1866 1867 
1881 1882 1868 1869 1883 1884 1870 1871 1885 
1886 1872 1873 1887 1888 1874 1875 1889 1890 
1876 1877 1891 1892 1878 1893 1894 1895 1909 
1910 1896 1897 1911 1912 1898 1899 1913 1914 
1900 1901 1915 1916 1902 1903 1917 1918 1904 
1905 1919 1920 1906 1907 1921 1922 1908 1923 
1924 1925 1939 1940 1926 1927 1941 1942 1928 
1929 1943 1944 1930 1931 1945 1946 1932 1933 
1947 1948 1934 1935 1949 1950 1937 1952 1951 
1936 1953 1938 2114 2115 2130 2131 2116 2117 
2132 2133 2118 2119 2134 2135 2120 2121 2136 
2137 2122 2123 2138 2139 2124 2125 2140 2141 
2126 2127 2142 2143 2128 2129 2144 2145 2146 
2147 2162 2163 2148 2149 2164 2165 2150 2151 
2166 2167 2152 2153 2168 2169 2154 2155 2170 
2171 2156 2157 2172 2173 2158 2159 2174 2175 
2160 2161 2176 2177 2178 2179 2194 2195 2180 
2181 2196 2197 2182 2183 2198 2199 2184 2185 
2200 2201 2186 2187 2202 2203 2188 2189 2204 
2205 2190 2191 2206 2207 2192 2193 2208 2209 
1954 1799 74 2984 281 3348 2743 641 3388 
3406 2053 291 3278 3188 2779 769 3299 94 
3433 3367 2976 2797 3128 2765 2793 2791 1831 
645 2307 3425 351 1758 631 3137 2814 3482 
1829 389 3279 3378 1807 3474 3473 2988 2828 
3472 2605 580 2809 2637 2607 1812 3464 3339 
3446 2812 2009 3259 3272 3157 3455 2823 279 
2815 2651 2998 2801 2816 2592 3010 1973 3253 
3145 2010 2373 3057 3312 2626 3012 3343 3043 
3005 3185 2030 2057 3042 2046 3044 3245 2656 
2086 3362 3364 2665 3369 1439 2544 3269 3255 
2455 3130 2650 2012 3226 3165 2044 3035 2101 
2039 2321 2108 3212 2272 2222 2337 3195 2089 
2375 2221 2572 2106 2992 2223 2224 3013 3334 
2837 1806 258 1980 2565 2729 3447 2259 3004 
3284 3282 2757 2497 2574 2342 2424 2096 2425 
2103 2293 2490 2405 2063 2277 2358 2334 2474 
2241 2554 2529 3407 2418 35 3125 2985 2036 
2635 2496 3133 2506 2112 2100 2357 3134 2073 
2421 3204 2367 2456 2400 2297 2298 2314 2318 
2350 2328 2399 2366 2387 1619 95 1847 2826 
3475 3316 2502 2371 2014 3187 2599 2323 3213 
2028 2403 3292 2262 2521 2494 3132 2302 2300 
2313 2265 2296 2299 2312 2281 2317 2415 2329 
2333 3048 2834 2825 3359 3242 3050 3144 3326 
2038 2016 3244 2557 2308 2075 2282 2280 2235 
2336 2295 2249 2310 2343 2311 2360 2426 2327 
2345 2361 2315 2819 3309 3049 3174 3209 1987 
2623 2975 2419 3003 3054 3345 2017 2047 2283 
3214 2555 2401 2285 2250 2352 2234 2218 2248 
2393 2378 2394 2264 2377 2330 2344 2331 3427 
1994 2986 3492 3158 3154 3437 3159 3465 2067 
2669 2528 2829 2239 3183 3015 2368 2284 2301 
2236 2458 2279 2266 2395 2380 2346 2316 2349 
2347 2364 2398 3030 2430 2431 2432 2433 2434 
3398 2972 3483 2563 2625 3135 2510 2763 2088 
2351 2231 2320 2233 2542 2254 2427 2379 2410 
2362 2382 2348 2363 2365 2435 2436 2440 2441 
2437 2438 2442 2443 2439 2444 3160 3389 1989 
2643 3034 3045 2324 2288 3267 2252 2267 2585 
2411 2412 2397 2247 2460 2413 2381 2445 2446 
2447 2448 2449 1846 3060 3246 2618 3014 3216 
3403 2341 3323 2591 2559 2420 2479 2511 2294 
2566 2219 2396 2326 2461 2428 2489 2459 2680 
2681 2686 2687 2682 2683 2688 2689 2684 2685 
2690 3456 3169 3352 2772 2020 2359 2275 2384 
2005 2319 2416 2229 2303 2353 2255 2286 2404 
2107 2402 2691 2692 2696 2697 2693 2694 2698 
2699 2695 2700 3349 2824 2983 3227 2226 2718 
2060 2271 2113 2407 2292 2526 2214 2102 2062 
2335 2369 2069 2055 2253 2586 2589 2251 1825 
2701 2702 2705 3484 2832 2817 2703 2704 3476 
3289 2099 2973 1965 3276 2602 2029 3365 3262 
2577 3233 2025 2537 3236 2408 2571 2087 2505 
3002 2059 3222 3274 3485 3438 2833 3189 3466 
3139 3221 1976 2535 2670 3205 2616 3206 2007 
2762 2211 3126 2004 3016 2061 2463 3153 3235 
3202 2071 2049 2385 2245 2225 2570 2048 2085 
3178 3457 3280 2649 3140 2339 2019 2659 2673 
3175 2609 3393 3176 3297 3375 3337 2582 1997 
3287 2575 2545 2244 2097 2289 2080 2556 2072 
2065 3224 2230 3199 3495 3170 3408 2987 2978 
1981 2002 2485 2486 2033 3053 3275 2759 3207 
3423 3024 3193 2766 2256 2023 3332 2603 3052 
3006 3313 2604 2608 3172 2257 3496 3329 3179 
3502 3310 1974 3009 1990 3304 3335 2666 3382 
2746 2498 3286 3217 2737 2011 3037 3422 2013 
572 2993 3019 3394 2820 2543 2536 3026 3396 
3477 3379 3493 3219 3190 1985 1977 2549 2468 
2619 2452 2484 2466 3196 3336 2642 2719 2749 
3366 3376 2751 3395 3356 2747 3177 3166 1964 
1995 2773 3355 3307 2764 2022 3494 2843 3428 
3399 2862 3180 3281 2999 3311 2488 2990 2655 
1982 2667 2630 2451 2516 2515 3266 3354 3306 
2787 2778 2716 3412 2774 2050 3247 2771 3486 
2845 3448 3419 3300 3400 3250 3230 2356 3261 
3181 2981 1975 2639 2354 2962 2653 2713 3302 
3344 2730 2597 3392 2648 3372 2641 2594 3373 
2707 3402 2514 2499 2847 2846 3506 3504 3467 
3487 3370 3320 3409 3390 3449 3000 3360 3301 
3168 2989 3161 3021 3171 3330 2969 3210 3191 
1413 2003 2726 3131 2390 3285 1972 2624 3051 
2842 2856 2844 2849 3497 3513 3498 3478 3458 
3505 3439 3468 3499 3489 3429 3200 3410 3290 
3350 3270 3421 3040 3251 3271 3430 3240 3151 
2851 2838 2853 2848 2854 2855 3512 3503 2857 
2858 3514 2859 3515 2860 3516 3507 2861 2863 
3517 3488 3508 2864 2865 3518 3509 3522 3523 
3469 3519 3510 3524 3459 3525 2866 2867 2882 
2883 2868 2869 2884 2885 2870 2871 2886 2887 
2872 2873 2888 2889 2874 2875 2890 2891 2876 
2877 2892 2893 2878 2879 2894 2895 2880 2881 
2896 2897 2898 2899 2914 2915 2900 2901 2916 
2917 2902 2903 2918 2919 2904 2905 2920 2921 
2906 2907 2922 2923 2908 2909 2924 2925 2910 
2911 2926 2927 2912 2913 2928 2929 2930 2931 
2946 2947 2932 2933 2948 2949 2934 2935 2950 
2951 2936 2937 2952 2953 2938 2939 2954 2955 
2940 2941 2956 2957 2959 2958 2943 2942 2961 
2945 2944 2960 3062 3063 3078 3079 3064 3065 
3080 3081 3066 3067 3082 3083 3068 3069 3084 
3085 3070 3071 3086 3087 3592 3593 3598 3599 
3594 3595 3600 3601 3596 3597 3602 3603 3094 
3095 3110 3111 3096 3097 3112 3113 3098 3099 
3114 3115 3100 3101 3116 3117 3102 3103 3118 
3119 3604 3605 3610 3611 3606 3607 3612 3613 
3608 3609 3614 3615 3090 3091 3120 3121 3088 
3089 3108 3109 3076 3077 3106 3107 3074 3075 
3104 3105 3072 3073 3092 3093 3616 3617 3622 
3623 3618 3619 3624 3625 3620 3621 3626 3627 
1768 1752 2807 2810 2800 539 2731 1727 2785 
3056 2742 2727 1955 2783 1668 2662 1956 2644 
2454 1961 1962 1967 3628 3629 3634 3635 3630 
3631 3636 3637 3632 3633 3638 3639 3318 3417 
2560 3333 2068 3129 3032 2614 3358 2995 3368 
1979 2994 3397 3319 3377 2782 1959 1957 2710 
1968 3640 3641 3646 3647 3642 3643 3648 3649 
3644 3645 3650 3651 3260 3436 3059 2472 3418 
2613 3353 2638 2979 3149 3215 3028 2811 761 
3338 1958 3249 2548 2082 3652 3653 3658 3659 
3654 3655 3660 3661 3656 3657 3662 3663 2040 
2228 2015 3383 2054 2043 2593 3264 2664 2212 
2081 3198 3416 1811 2243 3424 2098 2963 3664 
3665 3670 3671 3666 3667 3672 3673 3668 3669 
3674 3675 2464 2270 2480 2058 3203 3025 3296 
1983 3163 2391 2406 3164 2636 2045 3223 3443 
3442 2822 1498 2767 3676 3677 3682 3683 3679 
3685 3684 3678 3681 3686 3687 3680 2240 2553 
2094 2540 3182 2091 2600 2215 2309 2261 3237 
2997 3463 2741 2567 2654 2786 2803 3138 1817 
3688 3689 3694 3695 3690 3691 3696 3697 3692 
3693 3698 3699 2522 3283 2325 2541 2077 2273 
2246 3192 3124 2093 2568 3315 3426 3173 3162 
3295 2813 3452 1714 3700 3701 3706 3707 3702 
3703 3708 3709 3704 3705 3710 3711 2525 2539 
2414 2383 2332 2111 2076 2508 2520 2588 2291 
2500 3294 3047 2668 3258 3218 3414 2006 3712 
3713 3718 3719 3714 3715 3720 3721 3716 3717 
3722 3723 2478 2462 2473 2388 2269 2457 2523 
2074 2092 3186 2660 2027 3023 2671 2501 2031 
3142 2001 2622 2776 2736 3724 3725 3730 3731 
3726 3727 3732 3733 3728 3729 3734 3735 2493 
2491 2475 2524 2109 2217 2070 3305 2551 3022 
3363 3254 3435 3146 2732 1960 3736 3737 3742 
3743 3738 3739 3744 3745 3740 3741 3746 3747 
2509 2389 2429 2392 2260 2409 2110 2305 3033 
2041 2386 2026 2581 2213 3445 2583 2552 3147 
2768 3444 1970 3748 3749 3754 3755 3750 3751 
3756 3757 3752 3753 3758 3759 2477 2422 2492 
2476 2376 2340 2104 2238 2032 2606 2558 2569 
3122 2996 3156 3148 3277 3017 1999 1773 3760 
3761 3766 3767 3762 3763 3768 3769 3764 3765 
3770 3771 2278 2263 2507 2090 2216 2370 2232 
2504 2527 2465 2640 2532 3243 1998 2000 3434 
2744 2258 1753 3772 3773 3775 3774 3776 3777 
2237 2304 2287 2481 3155 2538 2417 3322 3123 
3039 2587 3029 3058 762 2579 3298 3385 1802 
3036 3778 3779 3784 3785 3780 3781 3786 3787 
3782 3783 3788 3789 3232 2105 2268 2220 2495 
2561 2573 2584 2227 3027 2021 2550 3038 3234 
2780 2754 2355 2708 3790 3791 3796 3797 3792 
3793 3798 3799 3794 3795 3800 3801 2064 3314 
3324 2276 2652 2042 2056 2633 2513 2008 1991 
3225 2601 3208 3386 3453 3268 2777 2530 2761 
2717 3802 3803 3808 3809 3804 3805 3810 3811 
3806 3807 3812 3813 3263 2083 2095 3342 3194 
2784 3018 3308 3143 3239 3008 3007 3357 3257 
2740 1963 2733 2965 3814 3815 3820 3821 3816 
3817 3822 3823 3818 3819 3824 3825 3293 3184 
3152 2798 2079 2576 3273 341 2794 2631 3252 
3055 3256 2469 1734 2450 2723 2966 2739 2621 
3826 3827 3832 3833 3828 3829 3834 3835 3830 
3831 3836 3837 1993 2078 2024 2374 3167 2617 
3328 3248 2804 613 2596 2792 3327 2982 2967 
2755 2970 2971 3838 3839 3844 3845 3840 3841 
3846 3847 3842 3843 3848 3849 3046 2620 2037 
1996 3288 3347 2512 3197 3405 3127 2775 1426 
2677 2632 2084 2533 2712 2968 2991 3011 3850 
3851 3856 3857 3852 3853 3858 3859 3854 3855 
3860 3861 1719 3228 3136 2722 2750 2758 2789 
3432 3404 2752 2290 3317 2714 2661 2679 2734 
2709 3031 3325 3041 3862 3863 3868 3869 3870 
3865 3864 3871 3867 3866 3872 3873 2735 2745 
3346 3413 1750 2612 636 2724 2306 2720 2756 
2562 2482 2977 2964 3001 2467 3201 1969 3061 
3874 3875 3880 3881 3876 3877 3882 3883 3878 
3879 3884 3885 2453 2372 2676 3238 2711 2663 
2760 2647 2657 2672 1971 3211 2210 2322 3231 
3291 2590 3331 3886 3887 3892 3893 3888 3889 
3894 3895 3890 3891 3896 3897 2646 2615 1966 
2598 3265 1988 2519 2627 2611 1984 1978 2634 
2675 2974 2035 3141 3241 3321 3381 2518 3411 
3898 3899 3904 3905 3900 3901 3906 3907 3902 
3903 3908 3909 3391 3341 3340 3020 2052 3401 
3420 3361 3371 3220 3441 3150 3351 3461 2980 
3431 3471 3481 3910 3911 3916 3917 3912 3913 
3918 3919 3914 3915 3920 3921 3526 3479 3480 
3450 3451 3527 3520 3528 3490 3460 3529 3500 
3380 3470 3530 3511 3440 3491 3501 3521 3531 
3922 3923 3928 3929 3924 3925 3930 3931 3926 
3927 3932 3933 3532 3533 3548 3549 3534 3535 
3550 3551 3536 3537 3552 3553 3538 3539 3554 
3555 3540 3541 3556 3557 3934 3935 3940 3941 
3936 3937 3942 3943 3938 3939 3944 3945 3564 
3565 3580 3581 3566 3567 3582 3583 3568 3569 
3584 3585 3570 3571 3586 3587 3572 3573 3588 
3589 3946 3947 3952 3953 3948 3949 3954 3955 
3950 3951 3956 3957 3560 3561 3590 3591 3558 
3559 3578 3579 3546 3547 3576 3577 3544 3545 
3574 3575 3542 3543 3562 3563 3958 3959 3964 
3965 3960 3961 3966 3967 3962 3968 3963 3969 

C_[0] 1 3969 double
0 0 0 0 0 0 0 0 0 
0 0 0 0 0 0 0 0 0 
0 0 0 0 0 0 0 0 0 
0 0 0 0 0 0 0 0 0 
0 0 0 0 0 0 0 0 0 
0 0 0 0 0 0 0 0 0 
0 0 0 0 0 0 0 0 0 
0 0 0 0 0 0 0 0 0 
0 0 0 0 0 0 0 0 0 
0 0 0 0 0 0 0 0 0 
0 0 0 0 0 0 0 0 0 
0 0 0 0 0 0 0 0 0 
0.00153012 0.00295743 0.00889421 0.018024 0.0124394 0.00570969 0.0254849 0.0341736 0.00903388 
0.0250055 0.0149391 0.0517299 0.0524778 0.0154916 0.014107 0.0475554 0.071523 0.0271141 
0.0923107 0.0779085 0.101019 0 0 0 0 0 0 
0 0 0 0 0 0 0.0196734 0.0140723 0.00455411 
0.00853955 0.0362104 0.0351378 0.0381735 0.0555595 0.0570426 0.0727252 0.061541 0.089984 
0.0918216 0.0871559 0.126033 0.117305 0.149094 0.131024 0.157969 0.196396 0.150826 
0 0 0 0 0 0 0 0 0 