# vtk DataFile Version 3.0
Generated by LAMMPS
ASCII
DATASET POLYDATA
POINTS 3969 float
-0.607843 -0.607843 0 -0.588235 -0.607843 0 -0.607843 -0.588235 0 
-0.588235 -0.588235 0 -0.568627 -0.607843 0 -0.54902 -0.607843 0 
-0.568627 -0.588235 0 -0.54902 -0.588235 0 -0.529412 -0.607843 0 
-0.509804 -0.607843 0 -0.529412 -0.588235 0 -0.509804 -0.588235 0 
-0.490196 -0.607843 0 -0.470588 -0.607843 0 -0.490196 -0.588235 0 
-0.470588 -0.588235 0 -0.45098 -0.607843 0 -0.431373 -0.607843 0 
-0.45098 -0.588235 0 -0.431373 -0.588235 0 -0.411765 -0.607843 0 
-0.392157 -0.607843 0 -0.411765 -0.588235 0 -0.392157 -0.588235 0 
-0.372549 -0.607843 0 -0.352941 -0.607843 0 -0.372549 -0.588235 0 
-0.352941 -0.588235 0 -0.333333 -0.607843 0 -0.313726 -0.607843 0 
-0.333333 -0.588235 0 -0.313726 -0.588235 0 -0.607843 -0.568627 0 
-0.588235 -0.568627 0 -0.607843 -0.54902 0 -0.588235 -0.54902 0 
-0.568627 -0.568627 0 -0.54902 -0.568627 0 -0.568627 -0.54902 0 
-0.54902 -0.54902 0 -0.529412 -0.568627 0 -0.509804 -0.568627 0 
-0.529412 -0.54902 0 -0.509804 -0.54902 0 -0.490196 -0.568627 0 
-0.470588 -0.568627 0 -0.490196 -0.54902 0 -0.470588 -0.54902 0 
-0.45098 -0.568627 0 -0.431373 -0.568627 0 -0.45098 -0.54902 0 
-0.431373 -0.54902 0 -0.411765 -0.568627 0 -0.392157 -0.568627 0 
-0.411765 -0.54902 0 -0.392157 -0.54902 0 -0.372549 -0.568627 0 
-0.352941 -0.568627 0 -0.352941 -0.54902 0 -0.372549 -0.54902 0 
-0.333333 -0.568627 0 -0.313726 -0.568627 0 -0.313726 -0.54902 0 
-0.333333 -0.54902 0 -0.607843 -0.529412 0 -0.588235 -0.529412 0 
-0.607843 -0.509804 0 -0.588235 -0.509804 0 -0.568627 -0.529412 0 
-0.54902 -0.529412 0 -0.568627 -0.509804 0 -0.54902 -0.509804 0 
-0.529412 -0.529412 0 -0.509804 -0.529412 0 -0.529412 -0.509804 0 
-0.509804 -0.509804 0 -0.470588 -0.509804 0 -0.490196 -0.509804 0 
-0.470588 -0.529412 0 -0.490196 -0.529412 0 -0.431373 -0.509804 0 
-0.45098 -0.509804 0 -0.431373 -0.529412 0 -0.45098 -0.529412 0 
-0.392157 -0.509804 0 -0.411765 -0.509804 0 -0.392157 -0.529412 0 
-0.411765 -0.529412 0 -0.352941 -0.509804 0 -0.372549 -0.509804 0 
-0.352941 -0.529412 0 -0.372549 -0.529412 0 -0.313726 -0.509804 0 
-0.333333 -0.509804 0 -0.313726 -0.529412 0 -0.333333 -0.529412 0 
-0.607843 -0.490196 0 -0.588235 -0.490196 0 -0.607843 -0.470588 0 
-0.588235 -0.470588 0 -0.568627 -0.490196 0 -0.54902 -0.490196 0 
-0.568627 -0.470588 0 -0.54902 -0.470588 0 -0.529412 -0.490196 0 
-0.509804 -0.490196 0 -0.529412 -0.470588 0 -0.509804 -0.470588 0 
-0.5 -0.491834 0 -0.479976 -0.499991 0 -0.48439 -0.475436 0 
-0.463085 -0.475756 0 -0.461904 -0.486021 0 -0.449147 -0.5 0 
-0.441832 -0.477059 0 -0.423998 -0.5 0 -0.412088 -0.486943 0 
-0.422147 -0.477921 0 -0.395352 -0.496403 0 -0.394218 -0.473995 0 
-0.372004 -0.499342 0 -0.377655 -0.475129 0 -0.347966 -0.495968 0 
-0.359481 -0.482581 0 -0.360066 -0.463623 0 -0.326949 -0.495877 0 
-0.33836 -0.472689 0 -0.321806 -0.474305 0 -0.607843 -0.45098 0 
-0.588235 -0.45098 0 -0.607843 -0.431373 0 -0.588235 -0.431373 0 
-0.568627 -0.45098 0 -0.54902 -0.45098 0 -0.568627 -0.431373 0 
-0.54902 -0.431373 0 -0.529412 -0.45098 0 -0.509804 -0.45098 0 
-0.529412 -0.431373 0 -0.509804 -0.431373 0 -0.476293 -0.457051 0 
-0.489502 -0.443108 0 -0.5 -0.463141 0 -0.5 -0.428561 0 
-0.465698 -0.431954 0 -0.442792 -0.458587 0 -0.461168 -0.451259 0 
-0.445201 -0.43709 0 -0.424318 -0.456722 0 -0.406533 -0.460142 0 
-0.425092 -0.436039 0 -0.407965 -0.434865 0 -0.391809 -0.447159 0 
-0.390198 -0.424724 0 -0.376165 -0.452936 0 -0.372352 -0.431609 0 
-0.356636 -0.439094 0 -0.341706 -0.45501 0 -0.344499 -0.426014 0 
-0.329723 -0.442272 0 -0.314603 -0.451132 0 -0.607843 -0.411765 0 
-0.588235 -0.411765 0 -0.607843 -0.392157 0 -0.588235 -0.392157 0 
-0.568627 -0.411765 0 -0.54902 -0.411765 0 -0.568627 -0.392157 0 
-0.54902 -0.392157 0 -0.529412 -0.411765 0 -0.509804 -0.411765 0 
-0.529412 -0.392157 0 -0.509804 -0.392157 0 -0.480603 -0.420642 0 
-0.480167 -0.404224 0 -0.496763 -0.399097 0 -0.467644 -0.391314 0 
-0.440235 -0.418137 0 -0.458213 -0.414031 0 -0.448642 -0.394777 0 
-0.43196 -0.396487 0 -0.420677 -0.414992 0 -0.414399 -0.391311 0 
-0.403485 -0.411362 0 -0.39634 -0.389417 0 -0.382274 -0.405211 0 
-0.370778 -0.392078 0 -0.36333 -0.41333 0 -0.326213 -0.421351 0 
-0.348683 -0.404208 0 -0.329323 -0.402072 0 -0.312887 -0.400252 0 
-0.607843 -0.372549 0 -0.588235 -0.372549 0 -0.607843 -0.352941 0 
-0.588235 -0.352941 0 -0.568627 -0.372549 0 -0.54902 -0.372549 0 
-0.568627 -0.352941 0 -0.54902 -0.352941 0 -0.529412 -0.372549 0 
-0.509804 -0.372549 0 -0.529412 -0.352941 0 -0.509804 -0.352941 0 
-0.481889 -0.38017 0 -0.474696 -0.360066 0 -0.496597 -0.368693 0 
-0.441945 -0.375199 0 -0.45864 -0.369862 0 -0.45575 -0.350122 0 
-0.43579 -0.355369 0 -0.423136 -0.371027 0 -0.406143 -0.369887 0 
-0.392513 -0.357085 0 -0.382856 -0.375754 0 -0.371259 -0.358335 0 
-0.360162 -0.37554 0 -0.35476 -0.350593 0 -0.345285 -0.385063 0 
-0.340794 -0.363283 0 -0.326736 -0.37785 0 -0.317477 -0.355833 0 
-0.607843 -0.333333 0 -0.588235 -0.333333 0 -0.607843 -0.313726 0 
-0.588235 -0.313726 0 -0.568627 -0.333333 0 -0.54902 -0.333333 0 
-0.568627 -0.313726 0 -0.54902 -0.313726 0 -0.529412 -0.333333 0 
-0.509804 -0.333333 0 -0.529412 -0.313726 0 -0.509804 -0.313726 0 
-0.479484 -0.344282 0 -0.496885 -0.339843 0 -0.475184 -0.322913 0 
-0.482296 -0.308614 0 -0.499203 -0.309539 0 -0.442005 -0.333853 0 
-0.460761 -0.329688 0 -0.44323 -0.309835 0 -0.427625 -0.324978 0 
-0.420093 -0.34517 0 -0.405259 -0.343455 0 -0.416866 -0.307727 0 
-0.405719 -0.319723 0 -0.390766 -0.326288 0 -0.378574 -0.34009 0 
-0.378111 -0.309284 0 -0.366342 -0.326132 0 -0.349619 -0.331198 0 
-0.332974 -0.345212 0 -0.346941 -0.31057 0 -0.327664 -0.307479 0 
-0.328824 -0.325396 0 -0.607843 -0.294118 0 -0.588235 -0.294118 0 
-0.607843 -0.27451 0 -0.588235 -0.27451 0 -0.568627 -0.294118 0 
-0.54902 -0.294118 0 -0.568627 -0.27451 0 -0.54902 -0.27451 0 
-0.529412 -0.294118 0 -0.509804 -0.294118 0 -0.529412 -0.27451 0 
-0.509804 -0.27451 0 -0.492927 -0.275009 0 -0.481245 -0.284075 0 
-0.468209 -0.290318 0 -0.437794 -0.267132 0 -0.446917 -0.281184 0 
-0.432702 -0.294547 0 -0.457489 -0.304834 0 -0.405796 -0.267351 0 
-0.419785 -0.280167 0 -0.404081 -0.291025 0 -0.39028 -0.296041 0 
-0.375989 -0.280448 0 -0.361435 -0.27486 0 -0.363632 -0.300298 0 
-0.333582 -0.278706 0 -0.346231 -0.29049 0 -0.318379 -0.292187 0 
-0.607843 -0.254902 0 -0.588235 -0.254902 0 -0.607843 -0.235294 0 
-0.588235 -0.235294 0 -0.568627 -0.254902 0 -0.54902 -0.254902 0 
-0.568627 -0.235294 0 -0.54902 -0.235294 0 -0.529412 -0.254902 0 
-0.509804 -0.254902 0 -0.529412 -0.235294 0 -0.509804 -0.235294 0 
-0.471569 -0.25736 0 -0.471752 -0.241904 0 -0.494832 -0.252007 0 
-0.490545 -0.230818 0 -0.459664 -0.266077 0 -0.449384 -0.245476 0 
-0.435089 -0.239484 0 -0.388824 -0.26695 0 -0.422388 -0.256208 0 
-0.410161 -0.242223 0 -0.394087 -0.244045 0 -0.375962 -0.253193 0 
-0.359938 -0.250706 0 -0.378203 -0.228848 0 -0.345975 -0.262657 0 
-0.320041 -0.26488 0 -0.330805 -0.248885 0 -0.344192 -0.23578 0 
-0.317131 -0.235653 0 -0.607843 -0.215686 0 -0.588235 -0.215686 0 
-0.607843 -0.196078 0 -0.588235 -0.196078 0 -0.568627 -0.215686 0 
-0.54902 -0.215686 0 -0.568627 -0.196078 0 -0.54902 -0.196078 0 
-0.529412 -0.215686 0 -0.509804 -0.215686 0 -0.529412 -0.196078 0 
-0.509804 -0.196078 0 -0.471874 -0.219264 0 -0.467702 -0.202011 0 
-0.497146 -0.214111 0 -0.485515 -0.198256 0 -0.455257 -0.225454 0 
-0.441662 -0.2145 0 -0.429299 -0.200213 0 -0.449686 -0.195765 0 
-0.422738 -0.224124 0 -0.409604 -0.216232 0 -0.392172 -0.22149 0 
-0.398432 -0.198476 0 -0.414632 -0.189483 0 -0.362034 -0.227138 0 
-0.38163 -0.198349 0 -0.367148 -0.203516 0 -0.349999 -0.211899 0 
-0.331259 -0.221245 0 -0.341699 -0.194944 0 -0.326699 -0.193448 0 
-0.315656 -0.214647 0 -0.607843 -0.176471 0 -0.588235 -0.176471 0 
-0.607843 -0.156863 0 -0.588235 -0.156863 0 -0.568627 -0.176471 0 
-0.54902 -0.176471 0 -0.568627 -0.156863 0 -0.54902 -0.156863 0 
-0.529412 -0.176471 0 -0.509804 -0.176471 0 -0.529412 -0.156863 0 
-0.509804 -0.156863 0 -0.471606 -0.179243 0 -0.487063 -0.178651 0 
-0.498012 -0.163299 0 -0.436697 -0.180162 0 -0.455225 -0.174623 0 
-0.425848 -0.165975 0 -0.460672 -0.155814 0 -0.441864 -0.153251 0 
-0.406571 -0.174152 0 -0.386721 -0.176485 0 -0.410728 -0.151646 0 
-0.393044 -0.15618 0 -0.358474 -0.184849 0 -0.372172 -0.171803 0 
-0.35043 -0.167214 0 -0.311385 -0.188887 0 -0.334727 -0.16905 0 
-0.317534 -0.167098 0 -0.607843 -0.137255 0 -0.588235 -0.137255 0 
-0.607843 -0.117647 0 -0.588235 -0.117647 0 -0.568627 -0.137255 0 
-0.54902 -0.137255 0 -0.568627 -0.117647 0 -0.54902 -0.117647 0 
-0.529412 -0.137255 0 -0.509804 -0.137255 0 -0.529412 -0.117647 0 
-0.509804 -0.117647 0 -0.469408 -0.14549 0 -0.487355 -0.144561 0 
-0.491948 -0.12961 0 -0.427494 -0.142403 0 -0.445934 -0.13154 0 
-0.433769 -0.117506 0 -0.461749 -0.126116 0 -0.396611 -0.134691 0 
-0.415135 -0.126055 0 -0.40237 -0.114734 0 -0.362488 -0.150335 0 
-0.377884 -0.145084 0 -0.349995 -0.138679 0 -0.379785 -0.123087 0 
-0.36448 -0.12201 0 -0.332582 -0.148227 0 -0.311609 -0.149362 0 
-0.323459 -0.131557 0 -0.341153 -0.12246 0 -0.607843 -0.0980392 0 
-0.588235 -0.0980392 0 -0.607843 -0.0784314 0 -0.588235 -0.0784314 0 
-0.568627 -0.0980392 0 -0.54902 -0.0980392 0 -0.568627 -0.0784314 0 
-0.54902 -0.0784314 0 -0.529412 -0.0980392 0 -0.509804 -0.0980392 0 
-0.529412 -0.0784314 0 -0.509804 -0.0784314 0 -0.476502 -0.112707 0 
-0.493038 -0.11041 0 -0.474625 -0.0910818 0 -0.486592 -0.0818849 0 
-0.457498 -0.107751 0 -0.438298 -0.0990769 0 -0.426041 -0.0808428 0 
-0.455917 -0.086577 0 -0.420291 -0.101271 0 -0.391504 -0.0999279 0 
-0.405497 -0.0871705 0 -0.373876 -0.100299 0 -0.355608 -0.103597 0 
-0.378822 -0.0797959 0 -0.362098 -0.0778826 0 -0.326024 -0.111426 0 
-0.342656 -0.0949516 0 -0.314863 -0.101122 0 -0.327867 -0.0812635 0 
-0.607843 -0.0588235 0 -0.588235 -0.0588235 0 -0.607843 -0.0392157 0 
-0.588235 -0.0392157 0 -0.568627 -0.0588235 0 -0.54902 -0.0588235 0 
[...]
POINT_DATA 3969
FIELD FieldData 5
id 1 3969 int
161 162 167 168 163 164 169 170 165 
166 171 172 107 108 123 124 109 110 
125 126 111 112 127 128 113 114 129 
130 115 116 131 132 173 174 179 180 
175 176 181 182 177 178 183 184 139 
140 155 156 141 142 157 158 143 144 
159 160 145 146 153 154 147 148 151 
152 185 186 191 192 187 188 193 194 
189 190 195 196 119 120 149 150 117 
118 137 138 105 106 135 136 103 104 
133 134 101 102 121 122 197 198 203 
204 199 200 205 206 201 202 207 208 
1013 1015 1499 2242 1019 1021 1759 1023 2645 
2628 2470 280 1411 1832 2483 1732 1774 263 
3387 1504 209 210 215 216 211 212 217 
218 213 214 219 220 2788 1016 1009 9 
622 1779 623 1798 1780 531 292 610 1775 
632 1816 1665 62 1793 73 1809 770 221 
222 227 228 223 224 229 230 225 226 
231 232 1803 1529 2487 1776 571 1794 369 
1646 1046 792 390 1657 354 33 13 791 
586 19 344 233 234 239 240 235 236 
241 242 237 238 243 244 2790 2753 1592 
2531 2769 540 260 320 570 1576 1395 556 
1129 313 1101 1088 1109 1266 245 246 251 
252 247 248 253 254 249 250 255 256 
2748 614 96 611 1017 43 564 1051 1614 
1099 1452 1501 1588 1453 333 1295 1110 1597 
1267 1121 1482 1305 407 408 413 414 409 
410 415 416 411 412 417 418 655 1778 
1745 1640 330 554 1293 1261 1084 1599 1135 
1118 355 1325 1373 1496 1455 419 420 425 
426 421 422 427 428 423 424 429 430 
1058 1730 86 2738 36 1610 270 1147 542 
1647 1090 506 1119 381 1423 1555 1572 1321 
1374 431 432 437 438 433 434 439 440 
435 436 441 442 612 781 1022 782 1815 
301 1637 520 1091 1059 1645 1092 1593 1133 
592 1257 1320 1541 1120 1478 1441 443 444 
449 450 445 446 451 452 447 448 453 
454 1782 654 1020 1560 2806 1323 1081 1651 
1556 1152 314 1396 1134 1281 1437 1539 1137 
1510 455 456 461 462 457 458 463 464 
459 460 465 466 590 400 1012 1633 1830 
1656 1598 1551 1532 1140 1304 1351 1525 1149 
1136 1336 1480 1479 1394 467 468 473 474 
469 470 475 476 471 472 477 478 644 
1725 1143 2471 560 1438 1483 1791 523 1253 
534 1365 1258 284 1537 1419 1512 1495 1274 
479 480 485 486 481 482 487 488 483 
484 489 490 7 1618 1018 1763 63 1611 
555 396 550 304 1689 1586 1521 1289 1262 
1291 1450 1534 1150 1273 1311 491 492 493 
494 495 496 312 2674 1338 34 1543 1368 
2721 1688 1108 1087 1264 1616 1489 1506 1565 
1282 1491 1254 657 658 663 664 659 660 
665 666 661 662 667 668 1770 2034 2658 
1761 1813 545 1547 2770 1639 1155 1063 1369 
1141 1574 1070 1612 1297 1269 1284 669 670 
675 676 671 672 677 678 673 674 679 
680 2725 2706 1814 1487 510 1728 1672 2802 
1107 55 45 1123 1049 575 1114 1399 90 
1430 1385 1475 681 682 687 688 683 684 
689 690 685 686 691 692 501 1622 1784 
2517 1797 1735 1661 1792 1795 282 275 1600 
30 515 1428 60 505 693 694 699 700 
695 696 701 702 697 698 703 704 392 
1533 1986 1726 53 380 331 530 66 97 
1590 346 653 500 2805 1115 760 546 601 
1631 705 706 711 712 707 708 713 714 
709 710 715 716 646 1577 2678 2 302 
1738 1484 1764 1787 1760 1743 633 1041 1398 
76 1062 1662 1042 1605 1039 350 717 718 
723 724 719 720 725 726 721 722 727 
728 1652 1729 1014 1 1756 2018 1769 1786 
772 1749 581 1800 44 521 1796 1566 1079 
1157 1678 729 730 735 736 731 732 737 
738 733 734 739 740 5 4 11 21 
31 1742 6 1767 1531 1054 1680 1080 1687 
261 1762 321 48 38 1549 1142 40 741 
742 747 748 743 744 749 750 745 746 
751 752 41 61 91 1741 512 1664 2610 
1518 1783 532 98 391 361 1744 58 551 
273 1801 643 913 914 919 920 915 916 
921 922 917 918 923 924 357 257 1693 
1677 1383 2580 1620 1650 2564 1503 1675 1723 
2547 553 1746 1765 1772 1715 274 925 926 
931 932 927 928 933 934 929 930 935 
936 596 2066 507 397 547 1098 71 20 
1128 594 8 1033 1673 1038 1563 1514 1731 
393 1517 1739 605 937 938 943 944 939 
940 945 946 941 942 947 948 1026 597 
647 1607 557 317 1558 1397 327 1559 22 
1621 514 10 1578 1488 1035 1027 1065 949 
950 955 956 951 952 957 958 953 954 
959 960 577 753 783 793 527 72 617 
558 348 297 627 537 587 1028 598 377 
1112 517 51 961 962 967 968 963 964 
969 970 965 966 971 972 774 803 833 
843 813 773 814 844 754 784 823 845 
804 846 764 847 638 834 763 848 973 
974 979 980 975 976 981 982 977 978 
983 984 859 860 875 876 861 862 877 
878 863 864 879 880 865 866 881 882 
867 868 883 884 985 986 991 992 987 
988 993 994 989 990 995 996 891 892 
907 908 893 894 909 910 895 896 911 
912 897 898 905 906 899 900 903 904 
997 998 1003 1004 999 1000 1005 1006 1001 
1002 1007 1008 871 872 901 902 869 870 
889 890 857 858 887 888 855 856 885 
886 854 853 874 873 1159 1160 1174 1175 
1161 1162 1176 1177 1163 1164 1178 1179 1165 
1166 1180 1181 1167 1168 1182 1183 1169 1170 
1184 1185 1171 1172 1186 1187 1173 1188 1189 
1190 1204 1205 1191 1192 1206 1207 1193 1194 
1208 1209 1195 1196 1210 1211 1197 1198 1212 
1213 1199 1200 1214 1215 1201 1202 1216 1217 
1203 1218 1219 1220 1234 1235 1221 1222 1236 
1237 1223 1224 1238 1239 1225 1226 1240 1241 
1227 1228 1242 1243 1229 1230 1244 1245 1231 
1232 1246 1247 1233 1248 2546 2728 771 1808 
54 370 65 1788 2799 3374 621 642 1748 
582 3229 1818 2781 652 1992 1158 1064 2818 
3462 2715 1810 559 2795 1777 3384 1833 2821 
1683 759 1790 1602 1307 519 85 1126 379 
1580 1029 640 334 27 574 1682 1044 779 
83 584 271 499 1591 84 1658 1308 780 
801 1826 600 2808 359 503 1276 1043 1076 
1519 1486 88 562 1339 1691 1535 1354 1298 
1094 1277 1381 1069 1674 1608 382 1737 1425 
1596 758 1827 1067 651 82 768 14 1096 
1324 1153 1151 1290 1252 1643 1265 1131 1263 
1294 1310 1259 1124 325 1581 1093 1148 1125 
1296 375 1292 1095 1073 342 1546 1306 802 
1513 339 1104 1359 1139 1371 1275 1372 1524 
1456 1387 1386 1401 1492 1138 1117 1357 345 
1573 89 1520 1632 50 522 366 1089 812 
1642 26 403 1824 589 2534 1358 1344 1362 
1400 1343 1331 1431 1348 1317 1328 1341 1416 
1105 1538 1554 1446 1102 283 356 552 1567 
1628 406 767 1516 1024 1127 2051 516 566 
258 790 1346 1345 1375 1329 1347 1330 1378 
1302 1569 1332 1318 1286 1370 1342 1314 285 
1477 1568 1409 1445 336 1507 1045 1260 1627 
1146 1071 1717 1550 99 1100 35 799 529 
1493 1417 1432 1360 1377 1363 1392 1364 1333 
1349 1407 1384 1285 1415 1271 1122 1511 343 
266 1156 1410 265 1648 757 1669 1789 259 
3415 1509 1389 1523 1447 1361 1376 1391 1420 
1406 1287 1393 1270 1379 1301 1316 1603 1327 
1315 1144 376 1540 49 513 1502 303 2836 
93 268 1050 290 289 1785 1508 1448 1390 
1402 1404 1451 1334 1350 1421 1601 1356 1424 
1313 1625 395 1086 1061 67 573 524 1353 
349 789 64 399 3303 1485 1561 388 1433 
1443 1388 1494 1418 1403 1405 1449 1299 1458 
1429 1367 1522 525 1366 1571 1582 335 262 
1663 1736 509 620 498 319 1459 1460 3454 
1579 1461 1442 1408 1434 1436 1481 1272 1490 
1312 1355 1585 1337 1380 1552 1594 1280 1718 
70 2274 329 1462 1466 28 778 822 1463 
1464 1467 1468 1465 1469 1440 1335 1435 1268 
1288 1256 1422 1303 1340 1542 1570 276 1085 
1116 1103 1322 1553 533 12 788 402 1470 
798 1472 1471 1473 1326 1474 1283 1255 1319 
1505 1414 1300 383 1526 363 1527 1309 535 
39 1106 1068 264 309 1694 1695 1699 1804 
579 1696 1697 1700 1701 1698 1702 1476 1075 
1457 1624 1497 1352 1557 1249 1587 1606 305 
405 1060 1251 502 593 585 78 1703 1707 
307 1805 549 1704 1705 1708 1709 1706 1710 
1609 1635 286 1660 326 1279 1604 1679 1154 
504 75 316 1536 1055 561 583 606 1056 
1641 528 800 17 1711 1712 1823 810 777 
1713 811 1828 1564 374 384 1113 394 1048 
1644 306 544 296 1130 386 1132 1615 77 
1584 624 79 1721 656 1626 1589 269 1690 
569 518 29 809 1822 2840 1862 1843 311 
365 37 1613 340 565 315 404 1145 56 
1629 1040 401 1382 1427 626 1530 1074 602 
1053 353 1636 1036 299 619 2830 756 1820 
2852 819 364 511 526 1634 385 1528 1250 
1444 1562 46 68 1077 1617 322 1072 603 
1751 59 625 1684 615 1595 373 24 310 
1082 298 599 2827 609 1841 591 576 1066 
1575 1111 272 57 635 47 2578 1766 2595 
1747 1733 595 352 1655 372 295 2423 1638 
1011 1649 81 497 1025 588 808 630 2831 
832 1848 87 541 1078 1057 360 1781 634 
371 1583 1544 293 1548 1654 294 1454 1653 
1623 100 536 1037 1083 267 538 23 92 
797 2839 1821 616 1740 1716 69 1771 1685 
1412 1754 332 604 1670 563 362 1722 1724 
324 2338 1052 1630 1666 1097 32 308 42 
300 650 578 796 821 1844 830 1819 1755 
1659 80 1686 323 1671 2503 1545 2629 15 
3 1692 543 1676 1010 18 1030 287 328 
378 288 548 787 639 766 618 828 2835 
820 1840 1720 1500 1031 1515 1278 1667 1681 
387 1034 52 1047 1032 367 277 567 318 
278 649 608 629 755 806 776 816 817 
818 1838 1845 2841 16 398 508 337 25 
347 607 368 648 338 775 358 637 628 
805 568 765 786 815 839 840 841 807 
831 842 1835 1836 1852 1842 1839 794 795 
850 849 824 835 851 852 785 825 1849 
1850 836 826 837 1851 1853 827 838 1854 
1855 829 1856 1857 1834 1858 1859 1837 1860 
1861 1863 1864 1865 1879 1880 1866 1867 1881 
1882 1868 1869 1883 1884 1870 1871 1885 1886 
1872 1873 1887 1888 1874 1875 1889 1890 1876 
1877 1891 1892 1878 1893 1894 1895 1909 1910 
1896 1897 1911 1912 1898 1899 1913 1914 1900 
1901 1915 1916 1902 1903 1917 1918 1904 1905 
1919 1920 1906 1907 1921 1922 1908 1923 1924 
1925 1939 1940 1926 1927 1941 1942 1928 1929 
1943 1944 1930 1931 1945 1946 1932 1933 1947 
1948 1934 1935 1949 1950 1937 1952 1951 1936 
1953 1938 2114 2115 2130 2131 2116 2117 2132 
2133 2118 2119 2134 2135 2120 2121 2136 2137 
2122 2123 2138 2139 2124 2125 2140 2141 2126 
2127 2142 2143 2128 2129 2144 2145 2146 2147 
2162 2163 2148 2149 2164 2165 2150 2151 2166 
2167 2152 2153 2168 2169 2154 2155 2170 2171 
2156 2157 2172 2173 2158 2159 2174 2175 2160 
2161 2176 2177 2178 2179 2194 2195 2180 2181 
2196 2197 2182 2183 2198 2199 2184 2185 2200 
2201 2186 2187 2202 2203 2188 2189 2204 2205 
2190 2191 2206 2207 2192 2193 2208 2209 1954 
1799 74 2984 281 3348 2743 3388 641 3406 
2053 3188 3278 3299 94 2779 2976 3433 2797 
3367 3128 2793 2765 2791 1831 2307 645 3425 
351 2810 2807 1758 1829 631 3137 3482 389 
1807 3474 291 3473 3472 769 2605 580 2809 
2637 1812 3464 3339 3446 2812 2009 3259 3272 
3157 3455 2823 3333 2068 3260 2560 2814 3378 
279 2815 3279 2828 2801 1973 2988 2373 3253 
3057 3012 3343 2607 3043 3185 2030 2057 2046 
3245 2656 2086 3044 3362 3364 2665 2472 3059 
2228 3436 2796 2651 2998 3369 2816 3010 2592 
2010 3255 3145 3312 2044 2626 3005 2108 2272 
3195 3042 2089 2221 2572 2106 2992 2223 2224 
3013 2480 2015 2040 2464 2544 1439 3269 3334 
2012 2455 3130 2650 3035 3226 2039 3165 2101 
3212 2424 2321 2222 2337 2490 2293 2375 2063 
2277 2358 2405 2529 2241 2474 2554 2058 2270 
2094 2837 1806 1980 2259 2565 2729 3284 3447 
3004 2497 2096 2574 2342 2112 2103 2425 2367 
2456 2400 2334 2318 2297 2350 2399 2387 2366 
2328 2415 2540 2522 3283 2553 3407 2418 1619 
95 3125 2985 2635 2036 3282 2757 2496 3133 
2506 3134 2073 2100 2357 2314 2421 3204 2494 
2298 2296 2313 2299 2317 2312 2329 2541 2333 
2332 1847 3475 2826 3048 2502 2371 3316 3187 
2323 2403 3292 2599 2262 3213 2300 3132 2302 
2521 2281 2265 2295 2249 2343 2327 2311 2360 
2345 2361 2315 2819 2825 3309 3049 2834 3050 
3359 1987 2014 2028 3242 3326 3244 2016 2308 
2282 2557 2235 2280 2336 2310 2218 2426 2378 
2394 2330 2344 2316 2331 1757 3209 3427 1994 
3174 2986 3492 2623 3144 2038 2975 3003 2075 
2419 2017 2401 2283 2047 2352 2250 2248 2285 
2393 2234 2264 2395 2377 2458 2380 2349 2348 
2347 2364 3030 2430 2431 2432 2433 2434 3437 
3158 3154 3159 3465 2067 3345 3054 3214 2528 
2239 2555 2368 3183 2236 2266 2284 2279 2427 
2379 2231 2346 2363 2362 2365 2435 2436 2440 
2441 2437 2438 2442 2443 2439 2444 2669 2829 
3398 2563 2301 3015 2510 2763 2320 2542 2351 
2233 2410 2411 2254 2413 2397 2412 2381 2445 
2446 2447 2448 2449 3483 2972 2625 3160 1989 
2088 3135 3045 2288 2324 2585 2267 2252 2247 
2219 2294 2326 2396 2428 2680 2681 2686 2687 
2682 2683 2688 2689 2684 2685 2690 1846 3389 
2618 3034 2643 3246 3267 3323 2591 2420 2341 
2511 2319 2479 2566 2303 2416 2353 2107 2286 
2255 2253 2691 2692 2696 2697 2693 2694 2698 
2699 2695 2700 3456 3060 3169 3014 3403 3216 
3352 2772 2559 2359 2005 2275 2384 2292 2229 
2526 2102 2335 2369 2069 2055 2586 1825 2701 
2702 2705 3484 2817 2824 2703 2704 3289 3349 
2020 2983 2226 1965 3227 2718 2271 2113 2407 
3262 2060 2062 2214 2577 2408 2571 2087 3236 
3274 3002 2505 2385 2832 3466 3485 3438 3476 
2973 3139 2535 3221 2099 2670 3276 2029 3365 
2602 2007 2025 2211 3126 3233 2061 2537 2463 
3153 3202 2071 2570 2048 2072 2245 2049 3189 
2833 3178 3457 1976 2616 2649 3140 3205 3206 
2659 2673 2762 3393 3176 3016 3297 3337 2582 
2004 3235 2545 2575 2244 2097 2289 2080 2608 
2230 2556 3280 3199 3495 2339 2019 2987 2978 
2609 2002 2485 3175 3375 3053 3275 2759 1997 
3207 3423 3287 3193 2766 2256 2023 3332 2603 
3052 3006 2993 2543 3313 3172 3408 3170 3496 
3329 1981 1974 3179 3009 2486 3304 3335 2033 
2746 2498 3217 2737 3024 3286 2011 3037 3422 
2013 572 3019 3394 2820 3026 3396 3177 3502 
3477 3310 3379 3190 1990 1985 3219 2549 2666 
1977 2468 3382 2484 2466 2452 3336 2719 2749 
3366 3376 2751 3395 3356 2747 3166 1964 1995 
3355 3307 2773 2764 3493 3494 2843 3428 3399 
3180 3281 2999 2488 2619 2990 2655 2667 2642 
2630 3196 2451 2516 2515 3266 3354 3306 2787 
2778 2716 3412 2050 2774 3247 2771 2862 3486 
2845 3448 3419 3300 3400 3311 3250 1982 3230 
2356 3261 3181 2981 1975 2639 2354 2653 2962 
2713 3302 3344 2730 2597 3392 3372 2648 2641 
2594 2707 3373 1972 3402 2847 2846 3506 3504 
3467 3487 3370 3320 3409 3390 3449 3000 3360 
3301 3168 2989 3161 3021 3171 2969 3210 3191 
1413 2003 2726 3131 2390 2624 3285 3051 2842 
2850 2856 2844 2849 3497 3513 3498 3478 3458 
3505 3439 3468 3499 3489 3330 3429 3200 3410 
3290 3350 3270 3421 3040 3251 3430 3240 3151 
2851 2838 2853 2848 2854 2855 3512 3503 2857 
2858 3514 2859 3515 2860 3516 3507 2861 2863 
3517 3488 3508 2864 2865 3518 3509 3522 3523 
3469 3519 3510 3524 3459 3525 2866 2867 2882 
2883 2868 2869 2884 2885 2870 2871 2886 2887 
2872 2873 2888 2889 2874 2875 2890 2891 2876 
2877 2892 2893 2878 2879 2894 2895 2880 2881 
2896 2897 2898 2899 2914 2915 2900 2901 2916 
2917 2902 2903 2918 2919 2904 2905 2920 2921 
2906 2907 2922 2923 2908 2909 2924 2925 2910 
2911 2926 2927 2912 2913 2928 2929 2930 2931 
2946 2947 2932 2933 2948 2949 2934 2935 2950 
2951 2936 2937 2952 2953 2938 2939 2954 2955 
2940 2941 2956 2957 2959 2958 2943 2942 2961 
2945 2944 2960 3062 3063 3078 3079 3064 3065 
3080 3081 3066 3067 3082 3083 3068 3069 3084 
3085 3070 3071 3086 3087 3592 3593 3598 3599 
3594 3595 3600 3601 3596 3597 3602 3603 3094 
3095 3110 3111 3096 3097 3112 3113 3098 3099 
3114 3115 3100 3101 3116 3117 3102 3103 3118 
3119 3604 3605 3610 3611 3606 3607 3612 3613 
3608 3609 3614 3615 3090 3091 3120 3121 3088 
3089 3108 3109 3076 3077 3106 3107 3074 3075 
3104 3105 3072 3073 3092 3093 3616 3617 3622 
3623 3618 3619 3624 3625 3620 3621 3626 3627 
1768 2800 1752 3318 539 2785 2731 2995 1727 
3056 2742 3368 2727 1955 2783 1668 2662 1956 
2644 2454 1961 1962 1967 3628 3629 3634 3635 
3630 3631 3636 3637 3632 3633 3638 3639 3032 
3129 3417 3418 2614 3358 1979 2994 3397 3319 
3377 2782 761 1959 1957 1958 2710 1968 3640 
3641 3646 3647 3642 3643 3648 3649 3644 3645 
3650 3651 3353 2593 3383 2613 2638 2043 2979 
2664 3149 2081 3215 3028 2811 2212 1811 3198 
3338 3416 3249 3424 2548 2082 3652 3653 3658 
3659 3654 3655 3660 3661 3656 3657 3662 3663 
3264 3025 2054 3296 3163 2391 3164 1983 2045 
2636 3223 2243 3443 2822 2098 3442 1498 2963 
3664 3665 3670 3671 3666 3667 3672 3673 3668 
3669 3674 3675 2215 2091 3182 3203 2406 2600 
3237 2309 2741 2261 2997 3124 2567 3463 3426 
3138 2767 1817 2803 3676 3677 3682 3683 3679 
3685 3684 3678 3687 3686 3681 3680 2273 2325 
2240 3192 2093 2520 2077 2568 3294 3315 3162 
3047 2813 3295 3173 3452 2654 2786 3688 3689 
3694 3695 3690 3691 3696 3697 3692 3693 3698 
3699 2246 2539 2525 2508 2111 2076 2588 2291 
3186 2500 2671 2668 3258 2501 2031 3218 1714 
2006 3414 3700 3701 3706 3707 3702 3703 3708 
3709 3704 3705 3710 3711 2414 2383 2523 2478 
2462 2269 2457 2074 2092 2660 2027 3023 2070 
3142 3022 3363 2622 2776 2001 3435 2736 3712 
3713 3718 3719 3714 3715 3720 3721 3716 3717 
3722 3723 2473 2493 2388 2109 2524 2475 2217 
2392 3305 3033 2386 2026 2551 3254 2041 2583 
3146 3445 2732 3724 3725 3730 3731 3726 3727 
3732 3733 3728 3729 3734 3735 2491 2509 2398 
2382 2389 2260 2110 2409 2581 2032 2305 2552 
2213 3147 3122 2768 1960 3444 3148 1970 3736 
3737 3742 3743 3738 3739 3744 3745 3740 3741 
3746 3747 2429 2477 2422 2492 2376 2340 2104 
2238 2606 2558 2504 2527 2569 2996 3156 2532 
3017 3277 3748 3749 3754 3755 3750 3751 3756 
3757 3752 3753 3758 3759 2476 2460 2278 2461 
2216 2090 2370 2263 2465 2232 2587 2417 1998 
3243 2640 2579 2000 1999 1773 3434 2744 2258 
3760 3761 3766 3767 3762 3763 3768 3769 3764 
3765 3770 3771 2507 2489 2459 2402 2287 2538 
2304 3039 3123 3322 3155 762 3058 3029 3036 
3298 1753 1802 3773 3772 3775 3774 3776 3777 
2251 2105 2404 3232 2237 2573 2495 2481 2021 
2561 3027 2584 2227 3234 2550 3038 2754 3385 
2780 3778 3779 3784 3785 3780 3781 3786 3787 
3782 3783 3788 3789 2268 2589 3222 2064 2220 
2056 3314 2513 2042 1991 2633 3225 3208 2008 
3386 3453 2355 2777 2708 2530 3790 3791 3796 
3797 3792 3793 3798 3799 3794 3795 3800 3801 
3324 2059 2225 2276 2652 3342 2083 2601 3018 
2095 3308 3143 3268 3007 3357 3008 2761 2740 
2717 3802 3803 3808 3809 3804 3805 3810 3811 
3806 3807 3812 3813 3263 2085 2065 3293 3194 
3273 2576 2784 2631 3252 3055 3239 3257 1734 
2469 1963 2733 2723 2965 3814 3815 3820 3821 
3816 3817 3822 3823 3818 3819 3824 3825 3184 
3152 3224 1993 2079 341 2798 2024 2374 2794 
3248 3328 3256 2450 613 2596 2966 2739 2621 
2967 3826 3827 3832 3833 3828 3829 3834 3835 
3830 3831 3836 3837 2257 2604 3046 2078 3167 
3288 2620 3347 2617 2804 3127 2792 3327 2982 
2677 2755 2970 2971 3838 3839 3844 3845 3840 
3841 3846 3847 3842 3843 3848 3849 2037 2536 
1719 3228 2512 1996 2750 3197 3405 2775 3404 
1426 2632 2084 2533 2712 2968 2991 2709 3011 
3850 3851 3856 3857 3852 3853 3858 3859 3854 
3855 3860 3861 2022 3136 3413 2758 2722 2724 
2789 2752 3432 2290 3317 2661 2714 2679 2734 
3001 3031 3325 3041 3862 3863 3868 3869 3870 
3865 3864 3871 3866 3873 3867 3872 2735 2745 
3346 3238 2612 636 1750 2306 2720 2756 2482 
2977 2964 2562 2467 3201 1969 3061 3874 3875 
3880 3881 3876 3877 3882 3883 3878 3879 3884 
3885 2453 2514 2499 2372 2676 2711 2663 2760 
2647 2657 2672 1971 3211 2210 2322 3231 3291 
2590 3331 3886 3887 3892 3893 3888 3889 3894 
3895 3890 3891 3896 3897 2646 2615 1966 3265 
2598 1988 2519 2627 2611 1984 1978 2634 2675 
2974 2035 3141 3241 3321 3381 2518 3411 3898 
3899 3904 3905 3900 3901 3906 3907 3902 3903 
3908 3909 3271 3391 3341 3340 3020 2052 3401 
3420 3361 3371 3220 3441 3150 3351 3461 2980 
3431 3471 3481 3910 3911 3916 3917 3912 3913 
3918 3919 3914 3915 3920 3921 3526 3479 3480 
3450 3451 3527 3520 3528 3490 3460 3529 3500 
3380 3470 3530 3511 3440 3491 3501 3521 3531 
3922 3923 3928 3929 3924 3925 3930 3931 3926 
3927 3932 3933 3532 3533 3548 3549 3534 3535 
3550 3551 3536 3537 3552 3553 3538 3539 3554 
3555 3540 3541 3556 3557 3934 3935 3940 3941 
3936 3937 3942 3943 3938 3939 3944 3945 3564 
3565 3580 3581 3566 3567 3582 3583 3568 3569 
3584 3585 3570 3571 3586 3587 3572 3573 3588 
3589 3946 3947 3952 3953 3948 3949 3954 3955 
3950 3951 3956 3957 3560 3561 3590 3591 3558 
3559 3578 3579 3546 3547 3576 3577 3544 3545 
3574 3575 3542 3543 3562 3563 3958 3959 3964 
3965 3960 3961 3966 3967 3969 3962 3968 3963 

C_[0] 1 3969 double
0 0 0 0 0 0 0 0 0 
0 0 0 0 0 0 0 0 0 
0 0 0 0 0 0 0 0 0 
0 0 0 0 0 0 0 0 0 
0 0 0 0 0 0 0 0 0 
0 0 0 0 0 0 0 0 0 
0 0 0 0 0 0 0 0 0 
0 0 0 0 0 0 0 0 0 
0 0 0 0 0 0 0 0 0 
0 0 0 0 0 0 0 0 0 
0 0 0 0 0 0 0 0 0 
0 0 0 0 0 0 0 0 0 
0.00148373 0.00276866 0.00961924 0.0171869 0.0123545 0.00578238 0.0255085 0.00911203 0.0233825 
0.030884 0.0152377 0.049093 0.0147841 0.0573904 0.0234741 0.0493257 0.0864386 0.0263881 
0.0801528 0.0843005 0 0 0 0 0 0 0 
0 0 0 0 0 0.0208784 0.0141537 0.00464762 0.00845417 
0.0437688 0.0415514 0.0345595 0.0593708 0.0548926 0.0623385 0.0801504 0.0977673 0.0935861 
0.129149 0.0966163 0.137614 0.138875 0.115456 0.172695 0.152307 0.147647 0 
0 0 0 0 0 0 0 0 0 