# vtk DataFile Version 3.0
Generated by LAMMPS
ASCII
DATASET POLYDATA
POINTS 3969 float
-0.607843 -0.607843 0 -0.588235 -0.607843 0 -0.607843 -0.588235 0 
-0.588235 -0.588235 0 -0.568627 -0.607843 0 -0.54902 -0.607843 0 
-0.568627 -0.588235 0 -0.54902 -0.588235 0 -0.529412 -0.607843 0 
-0.509804 -0.607843 0 -0.529412 -0.588235 0 -0.509804 -0.588235 0 
-0.490196 -0.607843 0 -0.470588 -0.607843 0 -0.490196 -0.588235 0 
-0.470588 -0.588235 0 -0.45098 -0.607843 0 -0.431373 -0.607843 0 
-0.45098 -0.588235 0 -0.431373 -0.588235 0 -0.411765 -0.607843 0 
-0.392157 -0.607843 0 -0.411765 -0.588235 0 -0.392157 -0.588235 0 
-0.372549 -0.607843 0 -0.352941 -0.607843 0 -0.372549 -0.588235 0 
-0.352941 -0.588235 0 -0.333333 -0.607843 0 -0.313726 -0.607843 0 
-0.333333 -0.588235 0 -0.313726 -0.588235 0 -0.607843 -0.568627 0 
-0.588235 -0.568627 0 -0.607843 -0.54902 0 -0.588235 -0.54902 0 
-0.568627 -0.568627 0 -0.54902 -0.568627 0 -0.568627 -0.54902 0 
-0.54902 -0.54902 0 -0.529412 -0.568627 0 -0.509804 -0.568627 0 
-0.529412 -0.54902 0 -0.509804 -0.54902 0 -0.490196 -0.568627 0 
-0.470588 -0.568627 0 -0.490196 -0.54902 0 -0.470588 -0.54902 0 
-0.45098 -0.568627 0 -0.431373 -0.568627 0 -0.45098 -0.54902 0 
-0.431373 -0.54902 0 -0.411765 -0.568627 0 -0.392157 -0.568627 0 
-0.411765 -0.54902 0 -0.392157 -0.54902 0 -0.372549 -0.568627 0 
-0.352941 -0.568627 0 -0.352941 -0.54902 0 -0.372549 -0.54902 0 
-0.333333 -0.568627 0 -0.313726 -0.568627 0 -0.313726 -0.54902 0 
-0.333333 -0.54902 0 -0.607843 -0.529412 0 -0.588235 -0.529412 0 
-0.607843 -0.509804 0 -0.588235 -0.509804 0 -0.568627 -0.529412 0 
-0.54902 -0.529412 0 -0.568627 -0.509804 0 -0.54902 -0.509804 0 
-0.529412 -0.529412 0 -0.509804 -0.529412 0 -0.529412 -0.509804 0 
-0.509804 -0.509804 0 -0.470588 -0.509804 0 -0.490196 -0.509804 0 
-0.470588 -0.529412 0 -0.490196 -0.529412 0 -0.431373 -0.509804 0 
-0.45098 -0.509804 0 -0.431373 -0.529412 0 -0.45098 -0.529412 0 
-0.392157 -0.509804 0 -0.411765 -0.509804 0 -0.392157 -0.529412 0 
-0.411765 -0.529412 0 -0.352941 -0.509804 0 -0.372549 -0.509804 0 
-0.352941 -0.529412 0 -0.372549 -0.529412 0 -0.313726 -0.509804 0 
-0.333333 -0.509804 0 -0.313726 -0.529412 0 -0.333333 -0.529412 0 
-0.607843 -0.490196 0 -0.588235 -0.490196 0 -0.607843 -0.470588 0 
-0.588235 -0.470588 0 -0.568627 -0.490196 0 -0.54902 -0.490196 0 
-0.568627 -0.470588 0 -0.54902 -0.470588 0 -0.529412 -0.490196 0 
-0.509804 -0.490196 0 -0.529412 -0.470588 0 -0.509804 -0.470588 0 
-0.5 -0.491844 0 -0.480458 -0.49954 0 -0.484888 -0.474658 0 
-0.466351 -0.469727 0 -0.463835 -0.483401 0 -0.456364 -0.498181 0 
-0.445095 -0.475605 0 -0.432318 -0.499978 0 -0.430612 -0.480831 0 
-0.414777 -0.4919 0 -0.412279 -0.470427 0 -0.39417 -0.49872 0 
-0.392832 -0.480747 0 -0.371856 -0.496549 0 -0.387132 -0.465062 0 
-0.357754 -0.490943 0 -0.371309 -0.464544 0 -0.35615 -0.47253 0 
-0.337025 -0.499752 0 -0.320678 -0.493217 0 -0.340941 -0.466558 0 
-0.327998 -0.473399 0 -0.311856 -0.468847 0 -0.607843 -0.45098 0 
-0.588235 -0.45098 0 -0.607843 -0.431373 0 -0.588235 -0.431373 0 
-0.568627 -0.45098 0 -0.54902 -0.45098 0 -0.568627 -0.431373 0 
-0.54902 -0.431373 0 -0.529412 -0.45098 0 -0.509804 -0.45098 0 
-0.529412 -0.431373 0 -0.509804 -0.431373 0 -0.474416 -0.451936 0 
-0.489828 -0.443942 0 -0.5 -0.463139 0 -0.5 -0.428558 0 
-0.470901 -0.428212 0 -0.430922 -0.462609 0 -0.456336 -0.452442 0 
-0.454139 -0.429697 0 -0.439562 -0.444747 0 -0.431338 -0.427586 0 
-0.41697 -0.444422 0 -0.40298 -0.451797 0 -0.398232 -0.430963 0 
-0.383174 -0.439175 0 -0.367159 -0.445395 0 -0.354424 -0.435513 0 
-0.341184 -0.44645 0 -0.326571 -0.441145 0 -0.607843 -0.411765 0 
-0.588235 -0.411765 0 -0.607843 -0.392157 0 -0.588235 -0.392157 0 
-0.568627 -0.411765 0 -0.54902 -0.411765 0 -0.568627 -0.392157 0 
-0.54902 -0.392157 0 -0.529412 -0.411765 0 -0.509804 -0.411765 0 
-0.529412 -0.392157 0 -0.509804 -0.392157 0 -0.480465 -0.416239 0 
-0.491922 -0.404241 0 -0.469159 -0.390561 0 -0.444675 -0.410625 0 
-0.459411 -0.404057 0 -0.435192 -0.389386 0 -0.412962 -0.420394 0 
-0.424337 -0.406013 0 -0.403569 -0.400207 0 -0.389526 -0.404758 0 
-0.377944 -0.418655 0 -0.372599 -0.389162 0 -0.364453 -0.411622 0 
-0.355528 -0.390407 0 -0.347249 -0.416629 0 -0.33885 -0.39438 0 
-0.331159 -0.417302 0 -0.323455 -0.385103 0 -0.3178 -0.406285 0 
-0.607843 -0.372549 0 -0.588235 -0.372549 0 -0.607843 -0.352941 0 
-0.588235 -0.352941 0 -0.568627 -0.372549 0 -0.54902 -0.372549 0 
-0.568627 -0.352941 0 -0.54902 -0.352941 0 -0.529412 -0.372549 0 
-0.509804 -0.372549 0 -0.529412 -0.352941 0 -0.509804 -0.352941 0 
-0.497885 -0.382304 0 -0.475675 -0.37722 0 -0.477938 -0.361516 0 
-0.494641 -0.352418 0 -0.464712 -0.347902 0 -0.44908 -0.381897 0 
-0.452846 -0.362734 0 -0.436362 -0.359143 0 -0.413717 -0.383751 0 
-0.42367 -0.369845 0 -0.406284 -0.352784 0 -0.39901 -0.370223 0 
-0.385738 -0.379807 0 -0.388246 -0.346293 0 -0.375681 -0.360093 0 
-0.359636 -0.368352 0 -0.361851 -0.346057 0 -0.342952 -0.351577 0 
-0.341357 -0.370952 0 -0.324402 -0.348656 0 -0.320487 -0.367082 0 
-0.607843 -0.333333 0 -0.588235 -0.333333 0 -0.607843 -0.313726 0 
-0.588235 -0.313726 0 -0.568627 -0.333333 0 -0.54902 -0.333333 0 
-0.568627 -0.313726 0 -0.54902 -0.313726 0 -0.529412 -0.333333 0 
-0.509804 -0.333333 0 -0.529412 -0.313726 0 -0.509804 -0.313726 0 
-0.48045 -0.334792 0 -0.495827 -0.323272 0 -0.480392 -0.310211 0 
-0.466124 -0.32434 0 -0.446747 -0.338965 0 -0.431303 -0.332675 0 
-0.448612 -0.317581 0 -0.440599 -0.305771 0 -0.417989 -0.342608 0 
-0.400565 -0.325291 0 -0.414506 -0.317596 0 -0.390548 -0.311069 0 
-0.379084 -0.332446 0 -0.374455 -0.30584 0 -0.362871 -0.322199 0 
-0.346953 -0.329644 0 -0.325371 -0.308977 0 -0.328945 -0.329314 0 
-0.345166 -0.307323 0 -0.607843 -0.294118 0 -0.588235 -0.294118 0 
-0.607843 -0.27451 0 -0.588235 -0.27451 0 -0.568627 -0.294118 0 
-0.54902 -0.294118 0 -0.568627 -0.27451 0 -0.54902 -0.27451 0 
-0.529412 -0.294118 0 -0.509804 -0.294118 0 -0.529412 -0.27451 0 
-0.509804 -0.27451 0 -0.489175 -0.271052 0 -0.480178 -0.284931 0 
-0.499498 -0.29601 0 -0.467831 -0.298495 0 -0.455679 -0.286054 0 
-0.439298 -0.284818 0 -0.425424 -0.273395 0 -0.410197 -0.290043 0 
-0.395413 -0.289305 0 -0.421924 -0.302381 0 -0.365037 -0.274121 0 
-0.377854 -0.285323 0 -0.356823 -0.295939 0 -0.345972 -0.27676 0 
-0.331197 -0.290093 0 -0.314802 -0.284587 0 -0.607843 -0.254902 0 
-0.588235 -0.254902 0 -0.607843 -0.235294 0 -0.588235 -0.235294 0 
-0.568627 -0.254902 0 -0.54902 -0.254902 0 -0.568627 -0.235294 0 
-0.54902 -0.235294 0 -0.529412 -0.254902 0 -0.509804 -0.254902 0 
-0.529412 -0.235294 0 -0.509804 -0.235294 0 -0.468445 -0.263649 0 
-0.487961 -0.251917 0 -0.471213 -0.242514 0 -0.498567 -0.236302 0 
-0.465029 -0.229534 0 -0.453339 -0.263497 0 -0.435592 -0.258481 0 
-0.44945 -0.240521 0 -0.433623 -0.234071 0 -0.409175 -0.264493 0 
-0.392008 -0.265472 0 -0.418499 -0.245885 0 -0.402105 -0.242743 0 
-0.379619 -0.256219 0 -0.357231 -0.255668 0 -0.384801 -0.235654 0 
-0.367672 -0.236917 0 -0.334174 -0.264199 0 -0.315338 -0.265808 0 
-0.346004 -0.24304 0 -0.32698 -0.2442 0 -0.607843 -0.215686 0 
-0.588235 -0.215686 0 -0.607843 -0.196078 0 -0.588235 -0.196078 0 
-0.568627 -0.215686 0 -0.54902 -0.215686 0 -0.568627 -0.196078 0 
-0.54902 -0.196078 0 -0.529412 -0.215686 0 -0.509804 -0.215686 0 
-0.529412 -0.196078 0 -0.509804 -0.196078 0 -0.464064 -0.210811 0 
-0.476493 -0.206988 0 -0.491502 -0.210098 0 -0.499401 -0.194721 0 
-0.441812 -0.214466 0 -0.446777 -0.197439 0 -0.427179 -0.198521 0 
-0.405455 -0.220802 0 -0.422026 -0.218302 0 -0.390541 -0.215147 0 
-0.403362 -0.195845 0 -0.352611 -0.222227 0 -0.36906 -0.214234 0 
-0.38075 -0.197329 0 -0.359224 -0.196651 0 -0.331108 -0.224051 0 
-0.315152 -0.221138 0 -0.341686 -0.205858 0 -0.322489 -0.198908 0 
-0.607843 -0.176471 0 -0.588235 -0.176471 0 -0.607843 -0.156863 0 
-0.588235 -0.156863 0 -0.568627 -0.176471 0 -0.54902 -0.176471 0 
-0.568627 -0.156863 0 -0.54902 -0.156863 0 -0.529412 -0.176471 0 
-0.509804 -0.176471 0 -0.529412 -0.156863 0 -0.509804 -0.156863 0 
-0.472483 -0.17876 0 -0.48209 -0.170602 0 -0.492301 -0.155373 0 
-0.440544 -0.179131 0 -0.459132 -0.178354 0 -0.426151 -0.165593 0 
-0.443862 -0.157798 0 -0.414707 -0.184355 0 -0.392418 -0.180013 0 
-0.408159 -0.162122 0 -0.39152 -0.159645 0 -0.371665 -0.179033 0 
-0.353976 -0.17455 0 -0.372365 -0.158059 0 -0.355247 -0.153041 0 
-0.338113 -0.185987 0 -0.334637 -0.166594 0 -0.316063 -0.172938 0 
-0.324286 -0.15193 0 -0.607843 -0.137255 0 -0.588235 -0.137255 0 
-0.607843 -0.117647 0 -0.588235 -0.117647 0 -0.568627 -0.137255 0 
-0.54902 -0.137255 0 -0.568627 -0.117647 0 -0.54902 -0.117647 0 
-0.529412 -0.137255 0 -0.509804 -0.137255 0 -0.529412 -0.117647 0 
-0.509804 -0.117647 0 -0.474112 -0.150266 0 -0.467174 -0.130999 0 
-0.487603 -0.132512 0 -0.484099 -0.117174 0 -0.455371 -0.148635 0 
-0.425596 -0.144591 0 -0.430908 -0.128294 0 -0.44953 -0.128185 0 
-0.408671 -0.138646 0 -0.390878 -0.138419 0 -0.413039 -0.116828 0 
-0.395486 -0.117334 0 -0.373387 -0.13694 0 -0.35956 -0.127277 0 
-0.377544 -0.112973 0 -0.344686 -0.114129 0 -0.342755 -0.141594 0 
-0.332559 -0.1262 0 -0.313667 -0.136344 0 -0.607843 -0.0980392 0 
-0.588235 -0.0980392 0 -0.607843 -0.0784314 0 -0.588235 -0.0784314 0 
-0.568627 -0.0980392 0 -0.54902 -0.0980392 0 -0.568627 -0.0784314 0 
-0.54902 -0.0784314 0 -0.529412 -0.0980392 0 -0.509804 -0.0980392 0 
-0.529412 -0.0784314 0 -0.509804 -0.0784314 0 -0.463637 -0.0999821 0 
-0.496481 -0.105862 0 -0.464972 -0.0847996 0 -0.485606 -0.0908589 0 
-0.431968 -0.10734 0 -0.4533 -0.109226 0 -0.437809 -0.0883004 0 
-0.434538 -0.0749902 0 -0.417682 -0.0956767 0 -0.394965 -0.0972824 0 
-0.406566 -0.0807661 0 -0.364128 -0.103839 0 -0.38063 -0.0872284 0 
-0.350265 -0.0907696 0 -0.363686 -0.0779503 0 -0.31734 -0.110601 0 
-0.332425 -0.0973444 0 -0.319513 -0.0859247 0 -0.607843 -0.0588235 0 
-0.588235 -0.0588235 0 -0.607843 -0.0392157 0 -0.588235 -0.0392157 0 
-0.568627 -0.0588235 0 -0.54902 -0.0588235 0 -0.568627 -0.0392157 0 
[...]
POINT_DATA 3969
FIELD FieldData 5
id 1 3969 int
161 162 167 168 163 164 169 170 165 
166 171 172 107 108 123 124 109 110 
125 126 111 112 127 128 113 114 129 
130 115 116 131 132 173 174 179 180 
175 176 181 182 177 178 183 184 139 
140 155 156 141 142 157 158 143 144 
159 160 145 146 153 154 147 148 151 
152 185 186 191 192 187 188 193 194 
189 190 195 196 119 120 149 150 117 
118 137 138 105 106 135 136 103 104 
133 134 101 102 121 122 197 198 203 
204 199 200 205 206 201 202 207 208 
1013 1015 1499 2242 1019 1021 2628 1023 2645 
2470 771 1411 54 2483 2799 263 621 642 
2546 2728 3229 1818 652 209 210 215 216 
211 212 217 218 213 214 219 220 2788 
1016 1009 9 1779 1732 1759 280 1832 3387 
1808 65 334 27 779 83 499 1658 221 
222 227 228 223 224 229 230 225 226 
231 232 623 622 531 1504 1774 1790 1029 
519 574 1044 584 1674 1608 1596 382 1095 
1425 522 1292 233 234 239 240 235 236 
241 242 237 238 243 244 1803 1780 292 
1798 1816 770 1793 1307 640 379 1682 1277 
1069 1381 1148 1296 1125 1520 89 1567 1089 
245 246 251 252 247 248 253 254 249 
250 255 256 1775 1529 610 62 759 1126 
1809 85 1580 1298 1354 1581 1093 345 1573 
283 285 356 1102 407 408 413 414 409 
410 415 416 411 412 417 418 1794 571 
2487 1665 1683 1602 562 1094 1259 1691 1117 
325 1632 1538 1554 1370 419 420 425 426 
421 422 427 428 423 424 429 430 632 
1776 1046 1592 13 73 1486 791 1076 1535 
1124 1339 1310 1138 1357 1401 1492 1446 1314 
1105 1286 431 432 437 438 433 434 439 
440 435 436 441 442 1646 2790 614 1017 
1276 586 1043 1263 88 1294 1265 1416 1386 
1387 1328 1569 1332 1341 1302 443 444 449 
450 445 446 451 452 447 448 453 454 
390 369 2753 344 354 503 19 1519 1131 
1252 1643 1456 1317 1524 1431 1348 1331 1330 
1347 455 456 461 462 457 458 463 464 
459 460 465 466 2531 2769 96 655 33 
1324 1101 792 1151 1290 1109 1153 1275 1372 
1139 1400 1343 1362 1329 467 468 473 474 
469 470 475 476 471 472 477 478 260 
1022 2748 86 1657 320 1395 570 1129 1266 
1088 1371 1104 1344 1359 1346 1358 1555 479 
480 485 486 481 482 487 488 483 484 
489 490 1058 564 1778 782 1020 540 611 
1099 1267 556 1576 313 1305 1482 1597 1121 
1455 1496 1373 1423 1321 491 492 493 494 
495 496 654 1012 7 2738 1293 1745 36 
333 43 1614 1452 1453 1110 1325 1295 1118 
355 506 1119 657 658 663 664 659 660 
665 666 661 662 667 668 1018 400 1725 
1610 612 554 1730 1051 330 1501 1588 1084 
1261 1599 1135 1147 1090 1645 381 669 670 
675 676 671 672 677 678 673 674 679 
680 644 1763 2471 312 781 590 1782 1640 
1815 270 520 542 1647 1091 1593 1092 1059 
1556 681 682 687 688 683 684 689 690 
685 686 691 692 1143 2674 2034 1081 1618 
1598 63 301 560 2806 1651 1637 1560 1323 
1633 314 1140 1532 534 693 694 699 700 
695 696 701 702 697 698 703 704 34 
2706 2725 1487 1622 550 2658 2721 1830 1791 
1438 396 1656 1611 1483 555 523 1689 1521 
705 706 711 712 707 708 713 714 709 
710 715 716 1770 1814 1784 501 1726 2770 
1761 1728 1338 1368 1547 1813 545 1688 1543 
1639 1155 1087 1264 1063 1107 717 718 723 
724 719 720 725 726 721 722 727 728 
1577 2 1 2517 392 1533 53 510 2802 
1661 1797 55 1735 1672 1792 45 1049 1795 
282 729 730 735 736 731 732 737 738 
733 734 739 740 646 1652 1729 21 1986 
1738 2678 302 331 380 1484 530 1590 66 
1743 633 97 1760 1041 741 742 747 748 
743 744 749 750 745 746 751 752 1014 
4 31 61 2018 1786 5 6 1787 1756 
1742 1769 1764 1680 772 581 1054 1800 1749 
913 914 919 920 915 916 921 922 917 
918 923 924 257 1677 91 2610 41 1664 
1741 11 1531 512 1518 1767 1783 532 1687 
1080 391 361 48 1762 925 926 931 932 
927 928 933 934 929 930 935 936 1693 
357 596 507 1620 2580 1383 71 1650 1723 
1098 2564 594 1675 1503 8 1746 1038 2547 
937 938 943 944 939 940 945 946 941 
942 947 948 2066 547 1026 597 397 1128 
317 20 1558 1607 1559 1033 1397 1673 22 
514 1563 1621 1578 949 950 955 956 951 
952 957 958 953 954 959 960 647 577 
753 783 793 557 527 72 348 617 327 
627 537 297 587 598 1028 10 377 1112 
961 962 967 968 963 964 969 970 965 
966 971 972 774 803 833 558 843 813 
814 844 773 784 845 754 823 804 846 
847 764 834 848 973 974 979 980 975 
976 981 982 977 978 983 984 859 860 
875 876 861 862 877 878 863 864 879 
880 865 866 881 882 867 868 883 884 
985 986 991 992 987 988 993 994 989 
990 995 996 891 892 907 908 893 894 
909 910 895 896 911 912 897 898 905 
906 899 900 903 904 997 998 1003 1004 
999 1000 1005 1006 1001 1002 1007 1008 871 
872 901 902 869 870 889 890 857 858 
887 888 855 856 885 886 854 874 853 
873 1159 1160 1174 1175 1161 1162 1176 1177 
1163 1164 1178 1179 1165 1166 1180 1181 1167 
1168 1182 1183 1169 1170 1184 1185 1171 1172 
1186 1187 1173 1188 1189 1190 1204 1205 1191 
1192 1206 1207 1193 1194 1208 1209 1195 1196 
1210 1211 1197 1198 1212 1213 1199 1200 1214 
1215 1201 1202 1216 1217 1203 1218 1219 1220 
1234 1235 1221 1222 1236 1237 1223 1224 1238 
1239 1225 1226 1240 1241 1227 1228 1242 1243 
1229 1230 1244 1245 1231 1232 1246 1247 1233 
1248 370 1788 1158 1064 3374 3462 84 1748 
582 780 1826 559 2781 1308 1992 801 2818 
2795 339 1810 2808 1833 82 2715 2821 600 
1096 1777 3384 768 271 1737 1591 375 1073 
758 1642 1067 342 812 767 651 1306 1827 
1513 1127 1550 14 26 403 99 516 1024 
589 1717 1824 790 802 1100 265 2796 2534 
566 366 50 1516 1546 336 1260 1628 1045 
1156 1146 1410 1627 376 266 1071 49 573 
1648 513 303 1353 67 757 1502 524 799 
1669 259 2836 552 1477 406 1445 1507 1409 
343 1511 1315 1540 1144 1625 1424 395 1086 
1522 1366 1571 1061 1582 262 1552 335 1663 
1718 1736 509 70 620 268 349 289 399 
1342 1568 1122 1415 1327 1301 1603 1316 1356 
1313 1458 525 1367 1380 1585 1594 1337 1116 
1103 1280 1322 2274 498 533 329 789 2819 
1485 1050 1285 1384 1287 1271 1270 1379 1601 
1350 1299 1449 1421 1429 1355 1312 1490 1553 
1570 1085 1542 276 1309 535 363 78 264 
402 39 1068 1060 28 3309 1785 822 1106 
1349 1318 1333 1407 1393 1406 1334 1451 1405 
1404 1481 1403 1340 1272 1303 405 1526 1527 
1587 502 1251 583 561 593 1804 1641 798 
3209 1561 3303 12 1364 1392 1378 1377 1376 
1420 1391 1361 1402 1390 1436 1418 1422 1434 
1300 1268 383 1249 1505 305 1606 75 504 
1536 606 549 1056 585 778 788 309 1363 
1375 1360 1432 1389 1447 1448 1388 1494 1408 
1433 1443 1435 1256 1414 1557 1352 1615 1679 
316 624 1055 1721 79 528 1626 1805 269 
579 64 800 1493 1417 1345 1509 1523 1508 
1480 1442 1495 1450 1288 1255 1604 1474 77 
1154 656 1589 1690 518 29 1823 569 777 
17 307 319 3454 1539 1441 1478 1374 1572 
1137 1510 1479 1419 1336 1274 1311 1440 1335 
1326 1497 1624 386 1584 626 1036 1053 1530 
1459 1460 1757 1579 1461 1541 1320 1120 1437 
1525 1394 1512 1273 1150 1283 1254 1319 1279 
326 1130 401 1040 299 602 1074 1462 1466 
1822 1463 1464 1467 1468 1465 1469 1257 1134 
1281 1133 1304 1136 1289 1534 1258 1457 1284 
1075 1282 306 1132 286 1629 353 1636 810 
1470 809 1471 1472 1473 1149 1351 1152 592 
1537 1291 1365 1491 1269 1476 1660 1644 296 
1145 1382 59 24 615 1427 1694 1695 1699 
2840 756 1696 1697 1700 1701 1698 1702 1551 
1396 1253 284 1262 1489 1612 1297 1385 1635 
1113 60 394 544 56 315 1595 1751 1684 
373 1703 1707 811 1843 619 1820 1704 1705 
1708 1709 1706 1710 304 1616 1565 1574 1430 
1475 1609 1564 384 1048 565 404 374 46 
1617 322 625 1082 310 295 298 1711 1712 
1862 1828 819 1713 2830 2852 1586 1506 1108 
1070 575 1369 90 1428 505 546 1631 365 
37 340 1444 1077 1072 603 595 2423 352 
81 1655 599 609 497 630 1841 832 2831 
1141 1123 1399 1114 515 1600 1115 601 1662 
311 364 1613 1250 1562 385 1528 68 1766 
2595 47 372 1011 1638 1025 1649 588 808 
1848 3502 1821 275 653 30 2805 346 500 
760 1042 350 1039 1157 1634 526 511 272 
57 635 1747 2578 294 1733 100 1653 1623 
92 1083 23 1037 267 797 2839 538 821 
1062 1398 44 76 1566 1605 1079 1678 591 
576 1575 1066 1111 634 1544 1583 293 1654 
1548 1454 536 324 1722 300 1097 1052 32 
1844 796 3493 261 521 321 1796 1549 38 
40 1142 643 87 1078 360 1057 1685 1781 
371 332 604 563 362 1724 2338 1630 42 
308 578 288 2843 830 650 787 1819 1801 
98 1744 551 58 273 274 541 616 1716 
1771 69 1412 1754 2629 2503 1670 543 15 
1676 1666 1030 18 378 548 618 639 2835 
820 828 553 1765 393 1772 1739 1715 1731 
80 1740 1755 1659 1686 323 1671 1545 1034 
3 1032 1692 1010 287 328 278 629 755 
816 806 766 1840 1838 2841 818 1065 1517 
1488 1035 1514 1027 605 1500 1720 1515 1031 
1278 1667 1681 387 52 1047 367 277 567 
318 568 649 608 815 776 817 807 1845 
1852 2842 25 51 638 517 398 16 508 
337 607 347 368 648 775 338 358 637 
628 805 765 786 839 840 841 831 842 
1836 1835 1842 1839 2850 763 850 849 794 
795 824 851 835 852 785 1849 825 1850 
836 1851 826 837 1853 827 1854 838 1855 
829 1857 1856 1834 1858 1859 1837 1860 1861 
1863 1864 1865 1879 1880 1866 1867 1881 1882 
1868 1869 1883 1884 1870 1871 1885 1886 1872 
1873 1887 1888 1874 1875 1889 1890 1876 1877 
1891 1892 1878 1893 1894 1895 1909 1910 1896 
1897 1911 1912 1898 1899 1913 1914 1900 1901 
1915 1916 1902 1903 1917 1918 1904 1905 1919 
1920 1906 1907 1921 1922 1908 1923 1924 1925 
1939 1940 1926 1927 1941 1942 1928 1929 1943 
1944 1930 1931 1945 1946 1932 1933 1947 1948 
1934 1935 1949 1950 1951 1936 1937 1952 1953 
1938 2114 2115 2130 2131 2116 2117 2132 2133 
2118 2119 2134 2135 2120 2121 2136 2137 2122 
2123 2138 2139 2124 2125 2140 2141 2126 2127 
2142 2143 2128 2129 2144 2145 2146 2147 2162 
2163 2148 2149 2164 2165 2150 2151 2166 2167 
2152 2153 2168 2169 2154 2155 2170 2171 2156 
2157 2172 2173 2158 2159 2174 2175 2160 2161 
2176 2177 2178 2179 2194 2195 2180 2181 2196 
2197 2182 2183 2198 2199 2184 2185 2200 2201 
2186 2187 2202 2203 2188 2189 2204 2205 2190 
2191 2206 2207 2192 2193 2208 2209 1954 74 
281 1799 631 2984 2814 2651 3348 3137 2743 
1829 3482 3406 641 3278 389 2779 3388 1807 
3433 3367 291 2053 769 2765 2791 3188 3299 
645 351 2998 1439 359 2051 258 279 3269 
3369 2837 1980 3334 2544 2815 1806 2592 2650 
3447 2455 3378 2816 2565 3130 2801 3255 3279 
3010 2012 3474 1973 3473 2828 2988 529 1619 
1789 3415 290 35 3475 2834 95 3407 1847 
2826 2502 2418 2371 2014 2635 3316 2985 2729 
2036 3125 2259 3187 3133 3284 3165 2757 2010 
3004 3226 3145 3048 2825 93 3049 3359 3050 
1987 3054 3003 3144 2419 3242 2038 2017 3214 
3326 2016 2323 2555 2028 3213 3244 2075 2599 
2506 2262 3134 2496 2357 3282 2112 2975 3174 
2623 3345 2669 3398 2829 2528 3015 2563 3267 
2763 2239 2301 2510 3183 2047 2368 2352 2283 
2285 2401 2308 2557 2235 2521 3292 2403 3154 
2067 3492 1989 2972 2625 3246 3034 3216 3135 
3014 3403 2559 3045 2591 2341 2288 2088 2542 
2324 2284 2266 2234 2236 2320 2250 2393 2336 
2218 2282 2280 2302 3132 3483 3158 3389 3060 
2772 2020 3352 2275 2359 2005 2384 3323 2420 
2319 2479 2229 2351 2585 2252 2267 2254 2231 
2233 2458 2248 2310 2394 2279 2300 2249 2265 
3159 3160 3427 2643 2271 1965 3227 2718 2060 
2113 2407 2416 2292 2353 2410 2511 2219 2566 
2427 2379 2411 2426 2264 2395 2380 2295 2281 
2311 2986 1846 2618 3169 3456 2099 3276 3262 
2602 2577 2526 2102 2062 2214 2303 2247 2396 
2255 2346 2412 2362 2428 2397 2378 2377 2347 
2364 2343 2360 2327 2330 388 1994 3465 2226 
2983 3289 2029 2973 3349 3365 3205 2670 2535 
2025 3233 3126 2335 2007 2326 2069 2294 2413 
2381 2460 2348 2349 2363 2316 2345 2361 2315 
2344 2331 3437 3030 2430 2431 2432 2433 2434 
2824 3476 2762 2616 2408 2211 2537 2107 2369 
2286 2461 2365 2422 2459 2382 2398 2493 2429 
2383 2478 2462 2388 2435 2436 2440 2441 2437 
2438 2442 2443 2439 2444 3221 3206 3016 2061 
3393 2004 2571 2055 3236 2253 2489 2476 2404 
2389 2509 2477 2475 2491 2414 2473 2523 2445 
2446 2447 2448 2449 3139 2817 1976 2659 3297 
2649 3176 3466 2505 2463 2087 2586 2402 2251 
2278 2376 2492 2409 2457 2092 2524 2392 2680 
2681 2686 2687 2682 2683 2688 2689 2684 2685 
2690 3140 3484 3189 3337 2673 3375 3235 2582 
3202 2589 2237 3002 2105 2507 2263 2090 2104 
2340 2217 2110 2260 2109 2691 2692 2696 2697 
2693 2694 2698 2699 2695 2700 3438 2339 1825 
2019 2609 3175 2575 1997 3153 2244 2071 2245 
3222 2268 2385 3274 2304 2287 3232 2216 2386 
2238 2305 2701 2702 2705 3485 2833 3457 2827 
2832 2703 2704 3280 2987 3178 2002 2485 3053 
2759 3287 2545 2097 2049 2059 2570 2064 2220 
2495 2370 2538 2581 2606 2232 2504 3495 3408 
3170 3199 2978 1981 1974 2486 2033 2746 3275 
3207 3193 3423 3217 3332 2080 2289 2256 2048 
2072 2225 3324 2276 3314 2573 2056 2481 2417 
2561 3155 3496 3179 3329 3009 3310 3304 1990 
2666 3335 2498 2737 3286 3024 2766 3037 2023 
3052 3006 2556 2603 2230 2065 2085 3184 3263 
2083 2652 2584 2633 2042 2513 3477 3190 3379 
1985 2549 2468 1977 3382 2466 2719 2011 2013 
3422 3019 2993 3313 572 3172 2608 3224 3026 
2257 3293 3152 2079 2095 3342 3194 3219 3494 
3180 3428 2619 2488 2452 2484 3336 3196 2642 
3376 3395 3366 2747 3394 2820 3177 3166 3396 
2543 2604 3046 1993 2078 2798 3273 2576 341 
2024 3281 3399 2862 3311 2999 2990 2655 1982 
2981 2667 2630 2451 2749 3266 2751 2515 3356 
2787 1964 1995 2536 2773 2764 3355 2620 2037 
1719 3228 2374 3288 3167 2512 1996 3419 3486 
3300 3448 2845 2356 3250 3230 2639 2354 3181 
2516 2713 2730 3354 2653 3306 3372 2778 2716 
3412 2774 2050 3307 2771 3247 2022 2745 3136 
3413 2722 2758 2724 2847 3506 3400 3370 3409 
3261 3000 1975 3301 2962 3021 3344 3302 3392 
2597 2648 2726 2641 2594 3373 2707 3402 2514 
2499 2735 1750 2676 2453 3346 3238 2846 3504 
3467 3487 3320 3390 3449 3360 3458 2989 3168 
3330 3161 3200 3171 3210 2969 3191 1413 2003 
2390 3131 3285 1972 3051 2624 2615 2646 2372 
1966 2598 2856 2844 2849 3497 3513 3498 3512 
3478 3505 3439 3468 3499 3489 3429 3410 3290 
3350 3270 3040 3421 3251 3430 3151 3240 3020 
3341 3391 3271 2851 2838 2853 2848 2854 2855 
3503 2857 3514 2858 2859 3515 3516 2860 3507 
2861 3517 3488 2863 3508 2864 3518 2865 3509 
3469 3522 3523 3519 3459 3510 3524 3525 3479 
2866 2867 2882 2883 2868 2869 2884 2885 2870 
2871 2886 2887 2872 2873 2888 2889 2874 2875 
2890 2891 2876 2877 2892 2893 2878 2879 2894 
2895 2880 2881 2896 2897 2898 2899 2914 2915 
2900 2901 2916 2917 2902 2903 2918 2919 2904 
2905 2920 2921 2906 2907 2922 2923 2908 2909 
2924 2925 2910 2911 2926 2927 2912 2913 2928 
2929 2930 2931 2946 2947 2932 2933 2948 2949 
2934 2935 2950 2951 2936 2937 2952 2953 2938 
2939 2954 2955 2940 2941 2956 2957 2959 2958 
2943 2942 2960 2961 2944 2945 3062 3063 3078 
3079 3064 3065 3080 3081 3066 3067 3082 3083 
3068 3069 3084 3085 3070 3071 3086 3087 3592 
3593 3598 3599 3594 3595 3600 3601 3596 3597 
3602 3603 3094 3095 3110 3111 3096 3097 3112 
3113 3098 3099 3114 3115 3100 3101 3116 3117 
3102 3103 3118 3119 3604 3605 3610 3611 3606 
3607 3612 3613 3608 3609 3614 3615 3090 3091 
3120 3121 3088 3089 3108 3109 3076 3077 3106 
3107 3074 3075 3104 3105 3072 3073 3092 3093 
3616 3617 3622 3623 3618 3619 3624 3625 3620 
3621 3626 3627 1752 1758 2797 2976 94 3128 
2793 1768 2731 1831 3425 1727 2742 2807 2785 
2727 1955 1956 1668 2454 1961 1962 1967 3628 
3629 3634 3635 3630 3631 3636 3637 3632 3633 
3638 3639 580 2373 3253 3472 2809 2637 3464 
2812 2307 2810 2800 539 3056 2662 2644 2710 
1968 3640 3641 3646 3647 3642 3643 3648 3649 
3644 3645 3650 3651 2044 2039 2605 3312 3057 
3012 2607 3272 1812 3259 2823 2009 3318 2068 
2995 2783 1959 3377 1957 1958 3652 3653 3658 
3659 3654 3655 3660 3661 3656 3657 3662 3663 
3035 2101 2321 2574 2497 2108 2626 3005 3343 
3446 3185 3157 2046 3368 3032 2560 3358 3397 
2994 2548 3664 3665 3670 3671 3666 3667 3672 
3673 3668 3669 3674 3675 2096 2342 2073 3204 
2100 2424 3212 2222 2272 3043 3339 2030 2057 
2656 3455 3417 2782 1979 3319 2082 2963 3676 
3677 3682 3683 3678 3679 3685 3684 3686 3680 
3687 3681 2367 2103 2421 2494 2425 2293 2089 
2337 3042 3245 3195 3260 3362 3129 3333 3215 
2098 3249 3688 3689 3694 3695 3690 3691 3696 
3697 3692 3693 3698 3699 2456 2297 2314 2313 
2400 2490 2405 2375 2086 3044 2221 3364 2106 
2665 2614 3059 3418 3338 761 3149 3442 1498 
3700 3701 3706 3707 3702 3703 3708 3709 3704 
3705 3710 3711 2298 2318 2296 2063 2334 2277 
2358 2572 2992 2223 2472 2638 2613 2811 3424 
3028 3198 3712 3713 3718 3719 3714 3715 3720 
3721 3716 3717 3722 3723 2328 2299 2366 2312 
2317 2350 2529 2241 2399 3013 2224 2228 2979 
3436 3353 2043 3383 2767 3416 1817 3724 3725 
3730 3731 3726 3727 3732 3733 3728 3729 3734 
3735 2329 2415 2333 2474 2554 2387 2058 2540 
2015 2040 2480 2054 2212 2593 2664 3443 2654 
1811 1714 3736 3737 3742 3743 3738 3739 3744 
3745 3740 3741 3746 3747 2522 2332 2541 2525 
2094 2553 3283 2464 2270 3025 3203 2081 3264 
1983 2243 3414 2822 3223 2001 3748 3749 3754 
3755 3750 3751 3756 3757 3752 3753 3758 3759 
2325 2539 2508 2246 3182 2240 2273 2091 3163 
3296 2215 2406 2045 2391 2636 2803 2736 3138 
2732 1960 3760 3761 3766 3767 3762 3763 3768 
3769 3764 3765 3770 3771 2111 2076 2077 3192 
2093 2309 2600 3164 3237 2261 2567 2741 3463 
2786 2813 1970 3452 2768 3773 3772 3774 3775 
3776 3777 3023 2074 3186 2269 2588 2291 3315 
2520 2568 3162 3173 3124 2997 2622 3295 3426 
2258 3277 2006 3218 3778 3779 3784 3785 3780 
3781 3786 3787 3782 3783 3788 3789 3305 2660 
3033 2070 2500 2671 2027 3047 3294 2668 2501 
3258 2031 3146 3435 2776 1773 3444 1753 3790 
3791 3796 3797 3792 3793 3798 3799 3794 3795 
3800 3801 2026 2032 2551 3142 3363 2041 2583 
3022 3254 3147 3445 1999 3148 3017 2744 1802 
3385 2754 3802 3803 3808 3809 3804 3805 3810 
3811 3806 3807 3812 3813 2558 2465 3123 2587 
2527 2552 2213 2569 2532 3122 2996 2000 3156 
3434 3243 762 2780 3036 2708 2530 3814 3815 
3820 3821 3816 3817 3822 3823 3818 3819 3824 
3825 3322 2021 3027 2640 2579 3039 2227 2550 
1998 3058 3029 3038 3298 2355 2777 2717 2965 
2740 2966 3826 3827 3832 3833 3828 3829 3834 
3835 3830 3831 3836 3837 3225 3018 2784 2008 
1991 2601 3007 3453 3234 3386 3268 3208 2761 
3008 1963 2733 2723 2621 2967 3838 3839 3844 
3845 3840 3841 3846 3847 3842 3843 3848 3849 
3308 3143 2794 3055 3252 3239 2631 3256 3357 
3257 1734 613 2469 2450 2596 2755 2739 2970 
2971 2991 3850 3851 3856 3857 3852 3853 3858 
3859 3854 3855 3860 3861 3347 2617 3328 3248 
3405 3127 2804 2792 2982 1426 3327 2677 2712 
2632 2533 2968 3011 3031 3862 3863 3868 3869 
3871 3870 3865 3864 3867 3873 3872 3866 2789 
2750 3432 3197 3317 2752 3404 2290 2734 2714 
2084 2775 2679 3325 2661 1969 3201 3061 3041 
2709 3874 3875 3880 3881 3876 3877 3882 3883 
3878 3879 3884 3885 636 2612 2760 2756 2306 
2720 2562 2482 2647 3001 2964 2977 1971 3211 
2467 3231 3291 3331 3886 3887 3892 3893 3888 
3889 3894 3895 3890 3891 3896 3897 2711 3265 
1988 2663 2519 2657 2611 1978 2672 2210 1984 
2675 2322 2974 2035 3321 2590 3381 2518 3411 
3898 3899 3904 3905 3900 3901 3906 3907 3902 
3903 3908 3909 3340 3401 2052 2627 3420 3361 
2634 3220 3371 3441 3141 3351 3241 3150 3461 
2980 3431 3471 3481 3910 3911 3916 3917 3912 
3913 3918 3919 3914 3915 3920 3921 3526 3480 
3450 3451 3527 3520 3528 3490 3460 3529 3500 
3470 3380 3530 3511 3440 3491 3501 3521 3531 
3922 3923 3928 3929 3924 3925 3930 3931 3926 
3927 3932 3933 3532 3533 3548 3549 3534 3535 
3550 3551 3536 3537 3552 3553 3538 3539 3554 
3555 3540 3541 3556 3557 3934 3935 3940 3941 
3936 3937 3942 3943 3938 3939 3944 3945 3564 
3565 3580 3581 3566 3567 3582 3583 3568 3569 
3584 3585 3570 3571 3586 3587 3572 3573 3588 
3589 3946 3947 3952 3953 3948 3949 3954 3955 
3950 3951 3956 3957 3560 3561 3590 3591 3558 
3559 3578 3579 3546 3547 3576 3577 3544 3545 
3574 3575 3542 3543 3562 3563 3958 3959 3964 
3965 3960 3961 3966 3967 3968 3963 3969 3962 

C_[0] 1 3969 double
0 0 0 0 0 0 0 0 0 
0 0 0 0 0 0 0 0 0 
0 0 0 0 0 0 0 0 0 
0 0 0 0 0 0 0 0 0 
0 0 0 0 0 0 0 0 0 
0 0 0 0 0 0 0 0 0 
0 0 0 0 0 0 0 0 0 
0 0 0 0 0 0 0 0 0 
0 0 0 0 0 0 0 0 0 
0 0 0 0 0 0 0 0 0 
0 0 0 0 0 0 0 0 0 
0 0 0 0 0 0 0 0 0 
0.00144108 0.00277341 0.00904998 0.0185764 0.0128089 0.00623707 0.0246574 0.00827209 0.0255477 
0.0170415 0.0462163 0.0126387 0.0416241 0.0172725 0.0716152 0.0301915 0.082842 0.0732945 
0.0152435 0.0302522 0.0940525 0.0867491 0.104701 0 0 0 0 
0 0 0 0 0 0 0 0 0.021875 
0.012577 0.00420559 0.00772082 0.0370339 0.0431401 0.0346591 0.0531615 0.0552744 0.0805628 
0.0778143 0.0799177 0.112145 0.117638 0.121033 0.148531 0.140856 0.162624 0 
0 0 0 0 0 0 0 0 0 