# vtk DataFile Version 3.0
Generated by LAMMPS
ASCII
DATASET POLYDATA
POINTS 3969 float
-0.607843 -0.607843 0 -0.588235 -0.607843 0 -0.607843 -0.588235 0 
-0.588235 -0.588235 0 -0.568627 -0.607843 0 -0.54902 -0.607843 0 
-0.568627 -0.588235 0 -0.54902 -0.588235 0 -0.529412 -0.607843 0 
-0.509804 -0.607843 0 -0.529412 -0.588235 0 -0.509804 -0.588235 0 
-0.490196 -0.607843 0 -0.470588 -0.607843 0 -0.490196 -0.588235 0 
-0.470588 -0.588235 0 -0.45098 -0.607843 0 -0.431373 -0.607843 0 
-0.45098 -0.588235 0 -0.431373 -0.588235 0 -0.411765 -0.607843 0 
-0.392157 -0.607843 0 -0.411765 -0.588235 0 -0.392157 -0.588235 0 
-0.372549 -0.607843 0 -0.352941 -0.607843 0 -0.372549 -0.588235 0 
-0.352941 -0.588235 0 -0.333333 -0.607843 0 -0.313726 -0.607843 0 
-0.333333 -0.588235 0 -0.313726 -0.588235 0 -0.607843 -0.568627 0 
-0.588235 -0.568627 0 -0.607843 -0.54902 0 -0.588235 -0.54902 0 
-0.568627 -0.568627 0 -0.54902 -0.568627 0 -0.568627 -0.54902 0 
-0.54902 -0.54902 0 -0.529412 -0.568627 0 -0.509804 -0.568627 0 
-0.529412 -0.54902 0 -0.509804 -0.54902 0 -0.490196 -0.568627 0 
-0.470588 -0.568627 0 -0.490196 -0.54902 0 -0.470588 -0.54902 0 
-0.45098 -0.568627 0 -0.431373 -0.568627 0 -0.45098 -0.54902 0 
-0.431373 -0.54902 0 -0.411765 -0.568627 0 -0.392157 -0.568627 0 
-0.411765 -0.54902 0 -0.392157 -0.54902 0 -0.372549 -0.568627 0 
-0.352941 -0.568627 0 -0.352941 -0.54902 0 -0.372549 -0.54902 0 
-0.333333 -0.568627 0 -0.313726 -0.568627 0 -0.313726 -0.54902 0 
-0.333333 -0.54902 0 -0.607843 -0.529412 0 -0.588235 -0.529412 0 
-0.607843 -0.509804 0 -0.588235 -0.509804 0 -0.568627 -0.529412 0 
-0.54902 -0.529412 0 -0.568627 -0.509804 0 -0.54902 -0.509804 0 
-0.529412 -0.529412 0 -0.509804 -0.529412 0 -0.529412 -0.509804 0 
-0.509804 -0.509804 0 -0.470588 -0.509804 0 -0.490196 -0.509804 0 
-0.470588 -0.529412 0 -0.490196 -0.529412 0 -0.431373 -0.509804 0 
-0.45098 -0.509804 0 -0.431373 -0.529412 0 -0.45098 -0.529412 0 
-0.392157 -0.509804 0 -0.411765 -0.509804 0 -0.392157 -0.529412 0 
-0.411765 -0.529412 0 -0.352941 -0.509804 0 -0.372549 -0.509804 0 
-0.352941 -0.529412 0 -0.372549 -0.529412 0 -0.313726 -0.509804 0 
-0.333333 -0.509804 0 -0.313726 -0.529412 0 -0.333333 -0.529412 0 
-0.607843 -0.490196 0 -0.588235 -0.490196 0 -0.607843 -0.470588 0 
-0.588235 -0.470588 0 -0.568627 -0.490196 0 -0.54902 -0.490196 0 
-0.568627 -0.470588 0 -0.54902 -0.470588 0 -0.529412 -0.490196 0 
-0.509804 -0.490196 0 -0.529412 -0.470588 0 -0.509804 -0.470588 0 
-0.5 -0.491837 0 -0.480007 -0.499736 0 -0.485458 -0.474181 0 
-0.465492 -0.47421 0 -0.463499 -0.485088 0 -0.452114 -0.499806 0 
-0.444546 -0.474809 0 -0.428066 -0.473455 0 -0.428398 -0.498622 0 
-0.420426 -0.485925 0 -0.40295 -0.495574 0 -0.400281 -0.473444 0 
-0.378994 -0.499319 0 -0.356967 -0.497165 0 -0.384486 -0.480477 0 
-0.372993 -0.47029 0 -0.354138 -0.476951 0 -0.337202 -0.493657 0 
-0.339561 -0.468201 0 -0.314577 -0.499936 0 -0.323047 -0.477157 0 
-0.607843 -0.45098 0 -0.588235 -0.45098 0 -0.607843 -0.431373 0 
-0.588235 -0.431373 0 -0.568627 -0.45098 0 -0.54902 -0.45098 0 
-0.568627 -0.431373 0 -0.54902 -0.431373 0 -0.529412 -0.45098 0 
-0.509804 -0.45098 0 -0.529412 -0.431373 0 -0.509804 -0.431373 0 
-0.472693 -0.454246 0 -0.488919 -0.443905 0 -0.5 -0.463141 0 
-0.5 -0.42856 0 -0.468071 -0.435471 0 -0.454556 -0.453271 0 
-0.446592 -0.43362 0 -0.435014 -0.450085 0 -0.429098 -0.427673 0 
-0.417939 -0.457493 0 -0.412988 -0.438779 0 -0.394856 -0.455701 0 
-0.391033 -0.441594 0 -0.362312 -0.455502 0 -0.373879 -0.439741 0 
-0.361453 -0.42937 0 -0.34558 -0.448322 0 -0.337849 -0.433199 0 
-0.323341 -0.452402 0 -0.321138 -0.426938 0 -0.607843 -0.411765 0 
-0.588235 -0.411765 0 -0.607843 -0.392157 0 -0.588235 -0.392157 0 
-0.568627 -0.411765 0 -0.54902 -0.411765 0 -0.568627 -0.392157 0 
-0.54902 -0.392157 0 -0.529412 -0.411765 0 -0.509804 -0.411765 0 
-0.529412 -0.392157 0 -0.509804 -0.392157 0 -0.479703 -0.421756 0 
-0.49385 -0.404083 0 -0.489621 -0.385602 0 -0.470252 -0.404489 0 
-0.455468 -0.4151 0 -0.461302 -0.389608 0 -0.440192 -0.406589 0 
-0.434991 -0.388249 0 -0.405994 -0.421264 0 -0.421747 -0.408402 0 
-0.404983 -0.397559 0 -0.39401 -0.38558 0 -0.389286 -0.415795 0 
-0.378431 -0.409709 0 -0.363645 -0.390867 0 -0.358268 -0.412588 0 
-0.346144 -0.390551 0 -0.340083 -0.412826 0 -0.326228 -0.40178 0 
-0.607843 -0.372549 0 -0.588235 -0.372549 0 -0.607843 -0.352941 0 
-0.588235 -0.352941 0 -0.568627 -0.372549 0 -0.54902 -0.372549 0 
-0.568627 -0.352941 0 -0.54902 -0.352941 0 -0.529412 -0.372549 0 
-0.509804 -0.372549 0 -0.529412 -0.352941 0 -0.509804 -0.352941 0 
-0.476095 -0.377307 0 -0.497971 -0.366466 0 -0.479677 -0.35555 0 
-0.448104 -0.377045 0 -0.442435 -0.354685 0 -0.458764 -0.360888 0 
-0.428428 -0.359149 0 -0.418173 -0.382959 0 -0.411233 -0.366343 0 
-0.399054 -0.355082 0 -0.378799 -0.383094 0 -0.385141 -0.36163 0 
-0.368536 -0.354644 0 -0.359006 -0.370447 0 -0.331284 -0.380059 0 
-0.343033 -0.362687 0 -0.327377 -0.35381 0 -0.314753 -0.378077 0 
-0.607843 -0.333333 0 -0.588235 -0.333333 0 -0.607843 -0.313726 0 
-0.588235 -0.313726 0 -0.568627 -0.333333 0 -0.54902 -0.333333 0 
-0.568627 -0.313726 0 -0.54902 -0.313726 0 -0.529412 -0.333333 0 
-0.509804 -0.333333 0 -0.529412 -0.313726 0 -0.509804 -0.313726 0 
-0.464684 -0.341714 0 -0.484045 -0.339754 0 -0.498138 -0.328908 0 
-0.478116 -0.308055 0 -0.466899 -0.319794 0 -0.44982 -0.328539 0 
-0.434624 -0.326765 0 -0.454456 -0.305959 0 -0.426531 -0.307913 0 
-0.422881 -0.338904 0 -0.407342 -0.335035 0 -0.410607 -0.311764 0 
-0.392716 -0.326358 0 -0.379829 -0.3367 0 -0.364203 -0.331197 0 
-0.367441 -0.307636 0 -0.382348 -0.306805 0 -0.35069 -0.315532 0 
-0.349591 -0.343451 0 -0.31794 -0.337546 0 -0.322198 -0.315898 0 
-0.336355 -0.33085 0 -0.607843 -0.294118 0 -0.588235 -0.294118 0 
-0.607843 -0.27451 0 -0.588235 -0.27451 0 -0.568627 -0.294118 0 
-0.54902 -0.294118 0 -0.568627 -0.27451 0 -0.54902 -0.27451 0 
-0.529412 -0.294118 0 -0.509804 -0.294118 0 -0.529412 -0.27451 0 
-0.509804 -0.27451 0 -0.499283 -0.268312 0 -0.480525 -0.270655 0 
-0.464126 -0.271152 0 -0.496047 -0.299101 0 -0.477892 -0.292053 0 
-0.430829 -0.274121 0 -0.455762 -0.286599 0 -0.437575 -0.295034 0 
-0.403117 -0.275294 0 -0.417276 -0.285594 0 -0.398765 -0.299819 0 
-0.370095 -0.28189 0 -0.385976 -0.2823 0 -0.353932 -0.290602 0 
-0.344638 -0.275745 0 -0.327648 -0.287576 0 -0.314099 -0.271146 0 
-0.336603 -0.303559 0 -0.607843 -0.254902 0 -0.588235 -0.254902 0 
-0.607843 -0.235294 0 -0.588235 -0.235294 0 -0.568627 -0.254902 0 
-0.54902 -0.254902 0 -0.568627 -0.235294 0 -0.54902 -0.235294 0 
-0.529412 -0.254902 0 -0.509804 -0.254902 0 -0.529412 -0.235294 0 
-0.509804 -0.235294 0 -0.484902 -0.250485 0 -0.464259 -0.245218 0 
-0.476515 -0.233861 0 -0.494351 -0.231098 0 -0.445777 -0.264831 0 
-0.430099 -0.249953 0 -0.448138 -0.244681 0 -0.413929 -0.258679 0 
-0.394116 -0.25441 0 -0.405104 -0.237775 0 -0.421512 -0.231843 0 
-0.387334 -0.231335 0 -0.378022 -0.260482 0 -0.359952 -0.261123 0 
-0.372394 -0.239581 0 -0.358781 -0.228675 0 -0.331215 -0.261973 0 
-0.348321 -0.248965 0 -0.340884 -0.231148 0 -0.322948 -0.246768 0 
-0.315344 -0.233253 0 -0.607843 -0.215686 0 -0.588235 -0.215686 0 
-0.607843 -0.196078 0 -0.588235 -0.196078 0 -0.568627 -0.215686 0 
-0.54902 -0.215686 0 -0.568627 -0.196078 0 -0.54902 -0.196078 0 
-0.529412 -0.215686 0 -0.509804 -0.215686 0 -0.529412 -0.196078 0 
-0.509804 -0.196078 0 -0.473613 -0.206759 0 -0.46461 -0.190222 0 
-0.497249 -0.205346 0 -0.443174 -0.224424 0 -0.461904 -0.21724 0 
-0.431086 -0.213264 0 -0.448994 -0.202278 0 -0.429415 -0.188359 0 
-0.411224 -0.213206 0 -0.394854 -0.210652 0 -0.411367 -0.193359 0 
-0.378073 -0.211939 0 -0.361814 -0.207431 0 -0.330241 -0.216519 0 
-0.345203 -0.204918 0 -0.317799 -0.203967 0 -0.607843 -0.176471 0 
-0.588235 -0.176471 0 -0.607843 -0.156863 0 -0.588235 -0.156863 0 
-0.568627 -0.176471 0 -0.54902 -0.176471 0 -0.568627 -0.156863 0 
-0.54902 -0.156863 0 -0.529412 -0.176471 0 -0.509804 -0.176471 0 
-0.529412 -0.156863 0 -0.509804 -0.156863 0 -0.482341 -0.188524 0 
-0.466838 -0.162573 0 -0.484251 -0.171773 0 -0.49908 -0.165512 0 
-0.443705 -0.180659 0 -0.450554 -0.164763 0 -0.428968 -0.159137 0 
-0.395483 -0.183627 0 -0.417349 -0.172497 0 -0.398911 -0.162734 0 
-0.385655 -0.152675 0 -0.381386 -0.187777 0 -0.364445 -0.184883 0 
-0.373102 -0.165592 0 -0.35427 -0.164519 0 -0.345048 -0.185148 0 
-0.328486 -0.185871 0 -0.337971 -0.159135 0 -0.322427 -0.167384 0 
-0.607843 -0.137255 0 -0.588235 -0.137255 0 -0.607843 -0.117647 0 
-0.588235 -0.117647 0 -0.568627 -0.137255 0 -0.54902 -0.137255 0 
-0.568627 -0.117647 0 -0.54902 -0.117647 0 -0.529412 -0.137255 0 
-0.509804 -0.137255 0 -0.529412 -0.117647 0 -0.509804 -0.117647 0 
-0.475802 -0.147268 0 -0.470336 -0.123856 0 -0.490182 -0.137133 0 
-0.496825 -0.120669 0 -0.440768 -0.144318 0 -0.458209 -0.140184 0 
-0.424802 -0.134729 0 -0.434661 -0.119086 0 -0.452025 -0.117886 0 
-0.411147 -0.148058 0 -0.396751 -0.132965 0 -0.407994 -0.120391 0 
-0.385524 -0.113075 0 -0.364624 -0.144649 0 -0.347893 -0.13946 0 
-0.377238 -0.13038 0 -0.360394 -0.119795 0 -0.308678 -0.152298 0 
-0.325042 -0.142351 0 -0.336296 -0.125664 0 -0.320616 -0.1149 0 
-0.607843 -0.0980392 0 -0.588235 -0.0980392 0 -0.607843 -0.0784314 0 
-0.588235 -0.0784314 0 -0.568627 -0.0980392 0 -0.54902 -0.0980392 0 
-0.568627 -0.0784314 0 -0.54902 -0.0784314 0 -0.529412 -0.0980392 0 
-0.509804 -0.0980392 0 -0.529412 -0.0784314 0 -0.509804 -0.0784314 0 
-0.480284 -0.107235 0 -0.480308 -0.0904981 0 -0.496493 -0.0837511 0 
-0.460967 -0.102007 0 -0.434113 -0.100165 0 -0.441136 -0.0849584 0 
-0.46058 -0.0819987 0 -0.416213 -0.103475 0 -0.398427 -0.0981215 0 
-0.416396 -0.0810843 0 -0.401414 -0.0737951 0 -0.383807 -0.0882387 0 
-0.367702 -0.102944 0 -0.37147 -0.0753718 0 -0.357662 -0.0854927 0 
-0.345719 -0.106837 0 -0.343359 -0.0753387 0 -0.332199 -0.0975672 0 
-0.310975 -0.0992023 0 -0.324309 -0.0789094 0 -0.607843 -0.0588235 0 
-0.588235 -0.0588235 0 -0.607843 -0.0392157 0 -0.588235 -0.0392157 0 
[...]
POINT_DATA 3969
FIELD FieldData 5
id 1 3969 int
161 162 167 168 163 164 169 170 165 
166 171 172 107 108 123 124 109 110 
125 126 111 112 127 128 113 114 129 
130 115 116 131 132 173 174 179 180 
175 176 181 182 177 178 183 184 139 
140 155 156 141 142 157 158 143 144 
159 160 145 146 153 154 147 148 151 
152 185 186 191 192 187 188 193 194 
189 190 195 196 119 120 149 150 117 
118 137 138 105 106 135 136 103 104 
133 134 101 102 121 122 197 198 203 
204 199 200 205 206 201 202 207 208 
1013 1015 1499 2242 1019 1021 1759 2628 1023 
2645 2470 1832 1411 2483 1732 3387 771 263 
1808 2546 54 209 210 215 216 211 212 
217 218 213 214 219 220 2788 1016 1009 
9 623 1779 1780 531 1775 280 1816 1774 
1793 1504 770 759 1790 1307 519 1126 221 
222 227 228 223 224 229 230 225 226 
231 232 622 1803 1529 1798 292 571 610 
632 62 1665 73 791 1809 1683 1076 1602 
1486 85 562 233 234 239 240 235 236 
241 242 237 238 243 244 1794 2487 1776 
1046 390 1646 354 13 586 19 1276 344 
503 1043 88 1519 1265 1339 245 246 251 
252 247 248 253 254 249 250 255 256 
369 2790 1592 2769 2531 792 1657 320 1395 
33 1101 1129 1109 1324 1151 1153 1266 1290 
1252 1131 1524 1643 407 408 413 414 409 
410 415 416 411 412 417 418 1017 2748 
540 614 2753 1576 260 570 313 556 1088 
1104 1267 1139 1371 1372 1343 1275 419 420 
425 426 421 422 427 428 423 424 429 
430 96 564 611 655 1099 1452 43 333 
1597 1110 1453 1121 1305 1359 1482 1455 1400 
1344 1358 1362 1329 431 432 437 438 433 
434 439 440 435 436 441 442 1778 1745 
86 1614 1293 1588 1051 1501 1295 1325 1135 
1496 1373 1346 1555 1345 443 444 449 450 
445 446 451 452 447 448 453 454 1058 
36 2738 1022 554 330 1084 1118 1599 1147 
506 355 1423 1119 1321 1572 1374 1541 1441 
455 456 461 462 457 458 463 464 459 
460 465 466 1730 612 782 1020 1640 1610 
542 270 1815 1261 1090 1647 1645 1133 1320 
381 1257 1539 1478 1120 1137 467 468 473 
474 469 470 475 476 471 472 477 478 
654 400 1012 781 301 520 1782 1091 1059 
1637 1593 1092 592 1152 1281 1134 1304 1437 
1336 1525 479 480 485 486 481 482 487 
488 483 484 489 490 590 1725 644 2806 
1081 1651 1598 1560 1556 1323 314 1396 1351 
1149 1394 1136 1258 1512 491 492 493 494 
495 496 2471 7 1143 1018 1830 560 1791 
1633 1438 1532 1656 523 1551 284 1140 1253 
1534 1289 1537 1365 657 658 663 664 659 
660 665 666 661 662 667 668 2674 312 
34 1618 1763 550 396 1611 63 555 1689 
1483 1586 304 534 1616 1489 1262 1291 669 
670 675 676 671 672 677 678 673 674 
679 680 2658 2034 2725 1338 2721 1368 2770 
1688 1543 1264 1639 1521 1108 1087 1369 1506 
1070 1565 1612 1574 681 682 687 688 683 
684 689 690 685 686 691 692 1770 2706 
1814 1487 1547 1761 1813 510 1728 545 1155 
55 1063 1141 1107 1123 1430 575 1114 90 
693 694 699 700 695 696 701 702 697 
698 703 704 1622 501 1784 392 2802 2517 
1661 45 1672 1797 1792 1049 1795 275 30 
1399 1600 515 705 706 711 712 707 708 
713 714 709 710 715 716 1726 1533 1986 
1577 53 331 1738 1735 530 380 66 1590 
282 653 97 346 2805 500 760 717 718 
723 724 719 720 725 726 721 722 727 
728 646 2 1652 1 302 2678 1787 2018 
1484 1756 1743 1764 633 1760 1398 1041 1062 
44 76 1605 1566 729 730 735 736 731 
732 737 738 733 734 739 740 1729 1014 
4 21 1786 5 1742 581 1769 1054 1680 
772 1749 1800 261 521 1796 321 38 741 
742 747 748 743 744 749 750 745 746 
751 752 31 41 61 2610 6 11 1531 
1741 1080 512 1767 1518 1687 1762 48 391 
361 551 1549 98 913 914 919 920 915 
916 921 922 917 918 923 924 257 1693 
1677 91 2580 1620 1664 1650 2564 1675 1723 
1783 2547 1746 532 1744 1765 1772 58 1801 
925 926 931 932 927 928 933 934 929 
930 935 936 357 596 2066 507 547 1383 
1098 71 20 594 1033 1503 8 1038 1563 
553 1514 393 937 938 943 944 939 940 
945 946 941 942 947 948 397 1026 597 
647 1128 557 317 1558 1607 1397 1559 1673 
22 1621 514 10 1517 1578 1488 1035 949 
950 955 956 951 952 957 958 953 954 
959 960 577 753 783 793 527 72 558 
348 617 327 627 537 754 297 587 1028 
598 377 1112 517 51 961 962 967 968 
963 964 969 970 965 966 971 972 774 
803 833 843 813 814 844 773 784 845 
823 804 846 847 764 638 834 848 973 
974 979 980 975 976 981 982 977 978 
983 984 859 860 875 876 861 862 877 
878 863 864 879 880 865 866 881 882 
867 868 883 884 985 986 991 992 987 
988 993 994 989 990 995 996 891 892 
907 908 893 894 909 910 895 896 911 
912 897 898 905 906 899 900 903 904 
997 998 1003 1004 999 1000 1005 1006 1001 
1002 1007 1008 871 872 901 902 869 870 
889 890 857 858 887 888 855 856 885 
886 853 854 874 873 1159 1160 1174 1175 
1161 1162 1176 1177 1163 1164 1178 1179 1165 
1166 1180 1181 1167 1168 1182 1183 1169 1170 
1184 1185 1171 1172 1186 1187 1173 1188 1189 
1190 1204 1205 1191 1192 1206 1207 1193 1194 
1208 1209 1195 1196 1210 1211 1197 1198 1212 
1213 1199 1200 1214 1215 1201 1202 1216 1217 
1203 1218 1219 1220 1234 1235 1221 1222 1236 
1237 1223 1224 1238 1239 1225 1226 1240 1241 
1227 1228 1242 1243 1229 1230 1244 1245 1231 
1232 1246 1247 1233 1248 2728 65 370 2799 
621 1788 642 3229 3374 1748 1818 652 582 
1158 2781 1064 1992 3462 84 2818 559 1810 
1308 2715 2795 1833 1777 3384 2821 379 1029 
640 334 574 27 1044 779 584 1069 83 
1608 499 382 271 1658 1591 1737 758 780 
1067 1826 1827 801 2808 14 82 600 359 
768 1096 2796 1580 1691 1535 1354 1094 1277 
1682 1298 1581 1381 1093 1674 1148 1296 1596 
1425 1095 1292 375 1073 342 1546 651 812 
1513 339 1306 403 802 589 2534 1263 1294 
1310 1124 1259 1138 325 1117 345 1632 1573 
1125 1520 89 283 1567 1089 522 366 50 
552 1642 1516 1628 767 336 26 1127 1024 
516 1824 566 790 1456 1387 1386 1401 1416 
1492 1357 1538 1554 1102 356 285 1477 1568 
406 1507 1409 1260 1045 1550 1146 1627 1071 
99 799 1100 1717 529 1431 1317 1348 1328 
1341 1569 1105 1446 1286 1370 1314 1318 1342 
1122 1384 1415 1445 1511 343 1327 1540 1156 
1410 1144 376 265 266 1648 303 49 1669 
1789 757 259 1331 1347 1330 1378 1302 1364 
1332 1333 1349 1285 1287 1407 1271 1301 1316 
1315 1603 1625 1424 395 573 1061 513 1502 
524 1353 2836 290 268 1375 1432 1360 1377 
1363 1392 1376 1393 1406 1379 1270 1601 1350 
1313 1458 1356 1086 1522 1366 525 1582 335 
67 1736 509 1663 349 93 399 789 1493 
1417 1509 1389 1447 1361 1391 1420 1404 1334 
1421 1451 1449 1299 1367 1429 1585 1380 1571 
1552 1594 262 70 1718 2274 620 498 28 
3209 1050 1785 1485 1510 1523 1480 1448 1390 
1402 1388 1418 1405 1312 1403 1481 1337 1355 
1570 1116 1103 1322 1280 402 329 533 1106 
822 64 1561 778 12 3427 1757 3303 388 
1479 1508 1495 1433 1443 1494 1434 1436 1490 
1272 1542 1553 1085 1309 264 39 535 1068 
788 798 1804 319 1459 1460 3454 1579 1461 
1419 1274 1450 1442 1408 1268 1435 1256 1422 
1340 1526 1303 276 363 405 1527 593 1060 
78 585 1462 1466 309 307 1463 1464 1467 
1468 1465 1469 1150 1273 1311 1440 1288 1255 
1505 1300 383 1414 1249 1251 1587 502 1606 
1641 583 606 579 549 1470 1472 1471 1473 
1284 1254 1491 1282 1335 1319 1474 1326 1352 
305 1557 75 561 504 1536 316 528 1056 
17 800 1694 1695 1699 1805 1696 1697 1700 
1701 1698 1702 1269 1385 1476 1297 1283 1457 
1624 1497 326 1604 1154 1679 1055 1615 1626 
624 79 1703 1707 1823 777 269 569 810 
1704 1705 1708 1709 1706 1710 1475 1609 60 
1635 1075 286 1660 1644 1279 306 1130 386 
77 1584 1132 1721 1589 656 626 1690 518 
29 1711 1712 1822 2840 809 811 1713 1828 
1428 1115 505 1631 546 1564 384 1113 394 
1048 544 296 315 1145 1040 1629 1382 1530 
401 1074 602 1053 1036 353 1636 756 299 
619 1862 1843 2830 1820 2852 601 1042 1662 
311 365 374 37 1613 340 565 404 46 
56 1617 322 1427 59 1751 615 1595 373 
1684 24 310 1082 298 599 819 2827 609 
1841 1039 1079 350 1157 1634 526 364 385 
1528 1250 1444 1562 68 1077 603 1766 1072 
625 595 352 295 2423 1655 1638 81 497 
832 2831 630 1142 1678 591 576 511 1066 
1575 1111 272 57 635 2578 47 1747 293 
294 2595 1733 372 1653 100 1011 1083 1649 
1025 588 92 808 1848 1821 797 273 40 
643 541 87 1078 1057 360 1781 634 371 
1583 1544 1548 1654 563 1454 1623 324 2338 
1722 536 1037 1097 267 538 23 300 821 
2839 796 1844 274 1715 616 1716 69 1771 
1685 1412 1754 332 604 1670 362 543 1724 
1630 1666 1052 308 42 288 32 650 578 
787 830 1819 2843 1739 1740 605 80 1731 
1755 1659 1686 323 1671 2503 1545 2629 3 
15 1692 1676 1010 18 287 1030 328 378 
755 548 639 766 618 828 2835 820 1840 
1065 1720 1500 1027 1515 1031 1278 1667 1681 
387 1034 52 1047 1032 367 277 567 318 
278 649 568 608 629 776 806 816 817 
807 818 1838 1845 2841 1852 16 398 25 
508 337 347 607 368 648 338 775 358 
637 628 805 765 786 815 839 840 841 
831 842 1835 1836 1842 1839 2850 763 794 
850 849 795 824 835 851 852 785 825 
1849 1850 836 826 1851 837 1853 827 838 
1854 1855 829 1856 1857 1834 1858 1859 1837 
1860 1861 1863 1864 1865 1879 1880 1866 1867 
1881 1882 1868 1869 1883 1884 1870 1871 1885 
1886 1872 1873 1887 1888 1874 1875 1889 1890 
1876 1877 1891 1892 1878 1893 1894 1895 1909 
1910 1896 1897 1911 1912 1898 1899 1913 1914 
1900 1901 1915 1916 1902 1903 1917 1918 1904 
1905 1919 1920 1906 1907 1921 1922 1908 1923 
1924 1925 1939 1940 1926 1927 1941 1942 1928 
1929 1943 1944 1930 1931 1945 1946 1932 1933 
1947 1948 1934 1935 1949 1950 1937 1952 1951 
1936 1953 1938 2114 2115 2130 2131 2116 2117 
2132 2133 2118 2119 2134 2135 2120 2121 2136 
2137 2122 2123 2138 2139 2124 2125 2140 2141 
2126 2127 2142 2143 2128 2129 2144 2145 2146 
2147 2162 2163 2148 2149 2164 2165 2150 2151 
2166 2167 2152 2153 2168 2169 2154 2155 2170 
2171 2156 2157 2172 2173 2158 2159 2174 2175 
2160 2161 2176 2177 2178 2179 2194 2195 2180 
2181 2196 2197 2182 2183 2198 2199 2184 2185 
2200 2201 2186 2187 2202 2203 2188 2189 2204 
2205 2190 2191 2206 2207 2192 2193 2208 2209 
1954 1799 74 2984 281 3348 2743 1829 641 
3388 3406 291 2053 3278 2779 769 3188 3299 
3433 94 3367 2976 2765 2797 3128 2791 645 
2793 1831 2307 351 1758 631 3137 2814 279 
2815 3482 3378 389 2801 3279 1807 3474 2828 
3473 2988 3253 3472 2373 2605 580 3012 2809 
2637 2607 1812 3464 3446 2812 2009 3259 3272 
2651 2998 3369 1439 2816 2592 2455 2544 3255 
3010 1973 2012 2010 3145 2044 3226 3312 3057 
2108 3035 2626 3343 3005 3043 3185 3339 2030 
2057 2046 3245 2656 3269 3334 2051 2837 2650 
2565 1806 2729 3130 3165 2259 3284 3004 2039 
2497 2321 2101 2424 2574 3212 2222 2272 2337 
3195 2089 2490 2293 3042 3044 2221 2572 2106 
258 1980 35 3407 2418 3447 2985 2635 3125 
2757 3133 2036 2506 3282 2112 2496 2357 3134 
2342 2073 2100 2096 2103 2425 2367 2405 2400 
2063 2334 2277 2241 2375 2358 95 1619 2826 
1847 2371 2502 2014 3316 3187 2323 2028 2599 
3292 3213 2262 2403 3204 3132 2521 2421 2494 
2456 2314 2297 2298 2318 2328 2350 2399 3475 
3415 2834 3048 2825 3050 3359 3242 3144 3326 
2016 2038 3244 2557 2308 2075 2282 2235 2336 
2302 2280 2300 2265 2249 2313 2296 2281 2299 
2366 2312 2317 289 3049 2819 3174 1987 3003 
2975 2419 2017 3214 3054 2528 2047 2283 2352 
2555 2401 2250 2285 2310 2218 2394 2248 2295 
2343 2311 2360 2426 2329 2327 2345 3309 3492 
2623 3158 3345 3154 2669 2067 2239 2829 3015 
3398 2563 3183 2301 2368 2510 2234 2284 2266 
2393 2458 2236 2279 2378 2264 2377 2395 2361 
2315 2330 2344 2331 1994 2986 3437 3159 3465 
2972 3483 2625 1989 3160 2763 3135 3045 3267 
3034 2542 2088 2351 2320 2231 2233 2380 2346 
2364 2427 2316 2349 2347 2398 3030 2430 2431 
2432 2433 2434 2643 3389 2618 3246 3014 2591 
3216 2324 2288 2341 2585 2254 2252 2410 2411 
2267 2379 2362 2397 2382 2348 2363 2435 2436 
2440 2441 2437 2438 2442 2443 2439 2444 1846 
3060 3403 2772 2275 3323 2559 2420 2359 2219 
2479 2511 2412 2247 2428 2381 2413 2365 2422 
2460 2429 2445 2446 2447 2448 2449 3456 3352 
2020 3227 2319 2005 2384 2271 2566 2416 2353 
2229 2303 2326 2294 2396 2489 2476 2459 2461 
2278 2680 2681 2686 2687 2682 2683 2688 2689 
2684 2685 2690 3349 2983 3169 2226 2718 1965 
2060 2113 2407 2102 2292 2526 2069 2255 2286 
2107 2253 2404 2402 2263 2691 2692 2696 2697 
2693 2694 2698 2699 2695 2700 2824 3289 3476 
2973 2099 3276 2029 3262 2577 2062 2602 2214 
2335 2408 2571 2369 2055 2586 3232 2237 2589 
2251 2105 1825 2701 2702 2705 2832 3485 3484 
2817 2703 2704 3466 3221 3139 2535 3205 2670 
3365 2007 3233 2025 2211 3126 2061 2537 3236 
2087 2505 3002 3274 2268 3222 2064 3438 2833 
3457 3178 3189 1976 3140 2616 3206 2659 2649 
2762 3297 3393 3176 3337 2004 3016 2582 3235 
2463 3153 2071 3202 2244 2049 2385 2245 2570 
2048 3324 2059 2225 3263 3280 3199 3495 2339 
2019 2987 2002 2673 3175 2609 3375 2759 1997 
3287 2575 3193 2545 2097 2289 3332 2080 2556 
2072 2230 2085 3184 2065 3170 3408 3496 3179 
2978 1981 1974 3304 2485 2486 2033 3053 3275 
3207 3217 2746 3423 3024 2766 3037 2256 2023 
2603 3052 3006 3313 3172 2608 3224 3152 2604 
2257 3329 3502 3310 3477 3009 1990 2549 3190 
3335 2666 3382 2498 3286 2466 2737 2719 2011 
3422 2013 3376 572 3019 3394 2993 2820 3026 
3396 2037 3046 2543 2536 3379 3493 3219 3494 
3428 1985 1977 3180 2488 2468 2619 2452 2484 
3196 3336 2642 2749 3366 2751 3395 3356 2747 
3166 1964 3177 1995 2773 2764 3355 2022 1719 
3307 3399 2862 3419 3281 2999 3311 1982 2990 
2655 2981 2667 2630 2516 2451 2515 3266 2713 
2730 3354 3306 2787 2778 2716 3412 2774 2050 
2735 3247 2771 2745 3486 2845 3448 3300 3400 
3250 3370 3230 2356 3261 3181 3000 1975 2639 
2354 2962 2653 3302 3344 3021 2597 3392 2648 
3372 2641 2594 3373 2707 3402 2514 2499 2847 
2846 3506 3504 3467 3487 3320 3409 3390 3449 
3360 3301 3168 2989 3330 3161 3171 3210 2969 
3191 1413 2003 2726 3131 2390 3285 3051 2646 
1972 2624 2615 2842 2856 2844 2849 3497 3513 
3498 3478 3458 3505 3439 3468 3499 3489 3429 
3200 3410 3290 3350 3270 3421 3040 3251 3341 
3391 3271 3430 3240 3151 2851 2838 2853 2848 
2854 2855 3512 3503 2857 2858 3514 2859 3515 
2860 3516 3507 2861 3517 2863 3488 3508 2864 
2865 3518 3509 3522 3523 3469 3519 3510 3524 
3459 3525 2866 2867 2882 2883 2868 2869 2884 
2885 2870 2871 2886 2887 2872 2873 2888 2889 
2874 2875 2890 2891 2876 2877 2892 2893 2878 
2879 2894 2895 2880 2881 2896 2897 2898 2899 
2914 2915 2900 2901 2916 2917 2902 2903 2918 
2919 2904 2905 2920 2921 2906 2907 2922 2923 
2908 2909 2924 2925 2910 2911 2926 2927 2912 
2913 2928 2929 2930 2931 2946 2947 2932 2933 
2948 2949 2934 2935 2950 2951 2936 2937 2952 
2953 2938 2939 2954 2955 2940 2941 2956 2957 
2959 2958 2943 2942 2960 2961 2945 2944 3062 
3063 3078 3079 3064 3065 3080 3081 3066 3067 
3082 3083 3068 3069 3084 3085 3070 3071 3086 
3087 3592 3593 3598 3599 3594 3595 3600 3601 
3596 3597 3602 3603 3094 3095 3110 3111 3096 
3097 3112 3113 3098 3099 3114 3115 3100 3101 
3116 3117 3102 3103 3118 3119 3604 3605 3610 
3611 3606 3607 3612 3613 3608 3609 3614 3615 
3090 3091 3120 3121 3088 3089 3108 3109 3076 
3077 3106 3107 3074 3075 3104 3105 3072 3073 
3092 3093 3616 3617 3622 3623 3618 3619 3624 
3625 3620 3621 3626 3627 1768 1752 2810 3425 
2807 2800 2731 1727 539 2785 3056 2742 2727 
1955 1668 1956 2662 2454 1961 1962 1967 3628 
3629 3634 3635 3630 3631 3636 3637 3632 3633 
3638 3639 2068 3455 2823 3157 2560 3318 3417 
3032 3358 2995 2994 2783 3368 3397 3377 2644 
1959 1957 2710 1968 3640 3641 3646 3647 3642 
3643 3648 3649 3644 3645 3650 3651 2665 3362 
2086 3333 3059 3260 3418 3129 1979 2614 3149 
3215 3319 761 2782 1958 2548 3652 3653 3658 
3659 3654 3655 3660 3661 3656 3657 3662 3663 
3364 3013 2992 2613 2472 2228 3436 3383 2638 
2593 3353 2979 2043 2811 3028 3338 3198 3249 
2082 3424 2098 3664 3665 3670 3671 3666 3667 
3672 3673 3668 3669 3674 3675 2223 2224 2480 
2474 2529 2015 2040 2464 2054 2664 3264 2212 
2081 1811 2243 2963 3416 3443 3442 1498 3676 
3677 3682 3683 3679 3685 3684 3678 3686 3687 
3680 3681 2058 2554 2387 2094 3203 2270 3025 
2215 2406 3296 2391 3163 2636 3223 2045 1983 
1817 2767 2822 3688 3689 3694 3695 3690 3691 
3696 3697 3692 3693 3698 3699 2540 2522 3283 
2415 3182 2553 2240 2091 2600 3237 3164 2261 
2567 2741 3463 3138 2803 2654 3700 3701 3706 
3707 3702 3703 3708 3709 3704 3705 3710 3711 
2333 2541 2525 2332 2273 2325 3192 2246 2309 
2077 2568 2093 2997 3124 3426 3173 2786 1714 
2813 3414 3712 3713 3718 3719 3714 3715 3720 
3721 3716 3717 3722 3723 2383 2414 2462 2539 
2111 2076 2508 3315 2520 2588 2291 3162 3295 
3294 3047 3452 3218 2006 2001 3724 3725 3730 
3731 3726 3727 3732 3733 3728 3729 3734 3735 
2478 2388 2473 2493 2457 2269 2523 2074 2092 
2500 3186 2660 2671 2668 3258 2501 2736 2622 
2776 2732 3736 3737 3742 3743 3738 3739 3744 
3745 3740 3741 3746 3747 2491 2475 2509 2392 
2524 2109 2217 2027 3023 2070 3305 2031 3142 
3022 3363 3435 1960 3146 1970 3748 3749 3754 
3755 3750 3751 3756 3757 3752 3753 3758 3759 
2389 2409 2477 2376 2386 2260 2110 2551 3033 
2041 2026 3254 3445 2583 3147 2768 3444 3277 
3760 3761 3766 3767 3762 3763 3768 3769 3764 
3765 3770 3771 2104 2492 2090 2305 2581 2340 
2606 2238 2552 2213 2032 2569 3148 3122 2996 
3156 1773 3017 1999 2258 3772 3773 3774 3775 
3776 3777 2287 2507 2370 2216 2232 2465 2504 
2640 2527 2532 1998 2558 2000 3434 3243 1802 
1753 2744 3778 3779 3784 3785 3780 3781 3786 
3787 3782 3783 3788 3789 2304 2495 2481 2538 
2417 3123 3155 2587 2579 3039 3322 762 3058 
3029 3298 3385 3036 2780 2754 3790 3791 3796 
3797 3792 3793 3798 3799 3794 3795 3800 3801 
2220 2573 3314 2056 2584 2561 2042 2021 2550 
2227 3027 2008 1991 3038 3234 3208 2708 2355 
2777 2530 3802 3803 3808 3809 3804 3805 3810 
3811 3806 3807 3812 3813 2652 2276 2083 3342 
2513 2633 2095 3018 3225 3453 2601 3007 3386 
3268 3008 2761 2717 2740 2733 2965 3814 3815 
3820 3821 3816 3817 3822 3823 3818 3819 3824 
3825 3194 3293 2079 3273 3143 2784 2576 3308 
3239 2631 3252 1734 3357 1963 3257 2469 2723 
2966 2739 2621 3826 3827 3832 3833 3828 3829 
3834 3835 3830 3831 3836 3837 2798 1993 2024 
3167 3055 341 2794 2374 3256 3328 3248 2450 
613 2596 2792 3327 2967 2970 2971 3838 3839 
3844 3845 3840 3841 3846 3847 3842 3843 3848 
3849 2078 2620 3288 2512 2617 3347 3405 2804 
3127 1426 2755 2982 2677 2632 2712 2968 2991 
3011 3850 3851 3856 3857 3852 3853 3858 3859 
3854 3855 3860 3861 1996 3228 3136 2722 2758 
3197 2750 3432 2752 2775 3404 2290 2714 2533 
2084 2661 2679 2709 3031 3325 3041 3862 3863 
3868 3869 3870 3865 3864 3871 3867 3866 3872 
3873 3346 3413 1750 2724 2612 636 2789 2756 
2720 2562 3317 2482 2977 2964 3001 2734 2467 
3201 1969 3061 3874 3875 3880 3881 3876 3877 
3882 3883 3878 3879 3884 3885 2453 2676 3238 
2711 2663 2760 2657 2306 2647 2672 2210 1971 
3211 2322 3231 3291 2590 3331 3886 3887 3892 
3893 3888 3889 3894 3895 3890 3891 3896 3897 
2372 1966 2598 3265 1988 2519 2627 2611 1984 
1978 2675 2974 2035 3321 3381 2518 3411 3898 
3899 3904 3905 3900 3901 3906 3907 3902 3903 
3908 3909 3340 3020 2052 3401 3420 3361 2634 
3371 3220 3441 3241 3141 3150 3351 3461 2980 
3431 3471 3481 3910 3911 3916 3917 3912 3913 
3918 3919 3914 3915 3920 3921 3526 3479 3480 
3450 3451 3527 3520 3528 3490 3460 3529 3500 
3380 3470 3530 3511 3440 3491 3501 3521 3531 
3922 3923 3928 3929 3924 3925 3930 3931 3926 
3927 3932 3933 3532 3533 3548 3549 3534 3535 
3550 3551 3536 3537 3552 3553 3538 3539 3554 
3555 3540 3541 3556 3557 3934 3935 3940 3941 
3936 3937 3942 3943 3938 3939 3944 3945 3564 
3565 3580 3581 3566 3567 3582 3583 3568 3569 
3584 3585 3570 3571 3586 3587 3572 3573 3588 
3589 3946 3947 3952 3953 3948 3949 3954 3955 
3950 3951 3956 3957 3560 3561 3590 3591 3558 
3559 3578 3579 3546 3547 3576 3577 3544 3545 
3574 3575 3542 3543 3562 3563 3958 3959 3964 
3965 3960 3961 3966 3967 3963 3969 3962 3968 

C_[0] 1 3969 double
0 0 0 0 0 0 0 0 0 
0 0 0 0 0 0 0 0 0 
0 0 0 0 0 0 0 0 0 
0 0 0 0 0 0 0 0 0 
0 0 0 0 0 0 0 0 0 
0 0 0 0 0 0 0 0 0 
0 0 0 0 0 0 0 0 0 
0 0 0 0 0 0 0 0 0 
0 0 0 0 0 0 0 0 0 
0 0 0 0 0 0 0 0 0 
0 0 0 0 0 0 0 0 0 
0 0 0 0 0 0 0 0 0 
0.00141899 0.00285112 0.00867436 0.0170216 0.0123226 0.00551641 0.0256411 0.0339043 0.00991245 
0.022533 0.0161341 0.0489066 0.0135793 0.01891 0.0453445 0.0673269 0.0655798 0.0305259 
0.0914284 0.018033 0.0808859 0 0 0 0 0 0 
0 0 0 0 0 0 0.0239945 0.0146356 0.0042283 
0.00823135 0.0367381 0.0373673 0.0599713 0.0554246 0.0843531 0.058761 0.0877793 0.0802981 
0.103529 0.10197 0.122718 0.150599 0.129 0.16442 0.138525 0.191405 0 
0 0 0 0 0 0 0 0 0 
0 0 0.0320693 0.0183861 0.0289333 0.0529063 0.0652987 0.0721795 0.0912522 